
     Program PWSCF v.6.3 starts on 13May2024 at  3:34:57 

     This program is part of the open-source Quantum ESPRESSO suite
     for quantum simulation of materials; please cite
         "P. Giannozzi et al., J. Phys.:Condens. Matter 21 395502 (2009);
         "P. Giannozzi et al., J. Phys.:Condens. Matter 29 465901 (2017);
          URL http://www.quantum-espresso.org", 
     in publications or presentations arising from this work. More details at
     http://www.quantum-espresso.org/quote

     Parallel version (MPI & OpenMP), running on     144 processor cores
     Number of MPI processes:               144
     Threads/MPI process:                     1

     MPI processes distributed on     3 nodes
     K-points division:     npool     =       4
     R & G space division:  proc/nbgrp/npool/nimage =      36
     Waiting for input...
     Reading input from standard input
Warning: card &IONS ignored
Warning: card   UPSCALE           = 100.D0, ignored
Warning: card / ignored
Warning: card &CELL ignored
Warning: card   CELL_DYNAMICS     = 'BFGS' ignored
Warning: card   PRESS_CONV_THR    = 0.5D0 ignored
Warning: card / ignored

     Current dimensions of program PWSCF are:
     Max number of different atomic species (ntypx) = 10
     Max number of k-points (npk) =  40000
     Max angular momentum in pseudopotentials (lmaxx) =  3

     Subspace diagonalization in iterative solution of the eigenvalue problem:
     one sub-group per band group will be used
     scalapack distributed-memory algorithm (size of sub-group:  6*  6 procs)

     Found symmetry operation: I + ( -0.5000  0.0000  0.5000)
     This is a supercell, fractional translations are disabled
 
     Parallelization info
     --------------------
     sticks:   dense  smooth     PW     G-vecs:    dense   smooth      PW
     Min          39      39     11                 1193     1193     187
     Max          40      40     12                 1196     1196     190
     Sum        1419    1419    413                43031    43031    6765
 

     Title: 
     hfo                                                                        


     bravais-lattice index     =            0
     lattice parameter (alat)  =       9.7503  a.u.
     unit-cell volume          =     900.2151 (a.u.)^3
     number of atoms/cell      =           12
     number of atomic types    =            2
     number of electrons       =        96.00
     number of Kohn-Sham states=           48
     kinetic-energy cutoff     =      50.0000  Ry
     charge density cutoff     =     200.0000  Ry
     convergence threshold     =      1.0E-10
     mixing beta               =       0.7000
     number of iterations used =            8  plain     mixing
     Exchange-correlation      = SLA  PZ   NOGX NOGC ( 1  1  0  0 0 0)

     celldm(1)=   9.750347  celldm(2)=   0.000000  celldm(3)=   0.000000
     celldm(4)=   0.000000  celldm(5)=   0.000000  celldm(6)=   0.000000

     crystal axes: (cart. coord. in units of alat)
               a(1) = (   1.000000   0.000000   0.000000 )  
               a(2) = (   0.000000   0.939774   0.000000 )  
               a(3) = (   0.000000   0.000000   1.033386 )  

     reciprocal axes: (cart. coord. in units 2 pi/alat)
               b(1) = (  1.000000  0.000000  0.000000 )  
               b(2) = (  0.000000  1.064086  0.000000 )  
               b(3) = (  0.000000  0.000000  0.967692 )  


     PseudoPot. # 1 for Hf read from file:
     ./hf.upf
     MD5 check sum: e51c1024c5e416e0162abb5a15a163bb
     Pseudo is Norm-conserving, Zval = 12.0
     Generated by new atomic code, or converted to UPF format
     Using radial grid of 1186 points,  3 beta functions with: 
                l(1) =   0
                l(2) =   1
                l(3) =   2

     PseudoPot. # 2 for O  read from file:
     ./o.upf
     MD5 check sum: 0270b6b1be82508c31ee19fe2bef830b
     Pseudo is Norm-conserving, Zval =  6.0
     Generated by new atomic code, or converted to UPF format
     Using radial grid of 1130 points,  1 beta functions with: 
                l(1) =   1

     atomic species   valence    mass     pseudopotential
        Hf            12.00   178.49000     Hf( 1.00)
        O              6.00    15.99940     O ( 1.00)

      4 Sym. Ops. (no inversion) found


                                    s                        frac. trans.

      isym =  1     identity                                     

 cryst.   s( 1) = (     1          0          0      )
                  (     0          1          0      )
                  (     0          0          1      )

 cart.    s( 1) = (  1.0000000  0.0000000  0.0000000 )
                  (  0.0000000  1.0000000  0.0000000 )
                  (  0.0000000  0.0000000  1.0000000 )


      isym =  2     180 deg rotation - cart. axis [0,0,1]        

 cryst.   s( 2) = (    -1          0          0      )
                  (     0         -1          0      )
                  (     0          0          1      )

 cart.    s( 2) = ( -1.0000000  0.0000000  0.0000000 )
                  (  0.0000000 -1.0000000  0.0000000 )
                  (  0.0000000  0.0000000  1.0000000 )


      isym =  3     180 deg rotation - cart. axis [0,1,0]        

 cryst.   s( 3) = (    -1          0          0      )
                  (     0          1          0      )
                  (     0          0         -1      )

 cart.    s( 3) = ( -1.0000000  0.0000000  0.0000000 )
                  (  0.0000000  1.0000000  0.0000000 )
                  (  0.0000000  0.0000000 -1.0000000 )


      isym =  4     180 deg rotation - cart. axis [1,0,0]        

 cryst.   s( 4) = (     1          0          0      )
                  (     0         -1          0      )
                  (     0          0         -1      )

 cart.    s( 4) = (  1.0000000  0.0000000  0.0000000 )
                  (  0.0000000 -1.0000000  0.0000000 )
                  (  0.0000000  0.0000000 -1.0000000 )


   Cartesian axes

     site n.     atom                  positions (alat units)
         1           Hf  tau(   1) = (   0.2500000   0.1993700   0.7750397  )
         2           Hf  tau(   2) = (   0.7500000   0.7404038   0.7750397  )
         3           Hf  tau(   3) = (   0.2500000   0.7404038   0.2583466  )
         4           Hf  tau(   4) = (   0.7500000   0.1993700   0.2583466  )
         5           O   tau(   5) = (   0.0000000   0.4698869   0.7750397  )
         6           O   tau(   6) = (   0.5000000   0.4698869   0.7750397  )
         7           O   tau(   7) = (   0.5000000   0.4698869   0.2583466  )
         8           O   tau(   8) = (   0.0000000   0.4698869   0.2583466  )
         9           O   tau(   9) = (   0.5000000   0.0000000   1.0333863  )
        10           O   tau(  10) = (   0.0000000   0.0000000   0.5166932  )
        11           O   tau(  11) = (   0.0000000   0.0000000   1.0333863  )
        12           O   tau(  12) = (   0.5000000   0.0000000   0.5166932  )

   Crystallographic axes

     site n.     atom                  positions (cryst. coord.)
         1           Hf  tau(   1) = (  0.2500000  0.2121468  0.7500000  )
         2           Hf  tau(   2) = (  0.7500000  0.7878532  0.7500000  )
         3           Hf  tau(   3) = (  0.2500000  0.7878532  0.2500000  )
         4           Hf  tau(   4) = (  0.7500000  0.2121468  0.2500000  )
         5           O   tau(   5) = (  0.0000000  0.5000000  0.7500000  )
         6           O   tau(   6) = (  0.5000000  0.5000000  0.7500000  )
         7           O   tau(   7) = (  0.5000000  0.5000000  0.2500000  )
         8           O   tau(   8) = (  0.0000000  0.5000000  0.2500000  )
         9           O   tau(   9) = (  0.5000000  0.0000000  1.0000000  )
        10           O   tau(  10) = (  0.0000000  0.0000000  0.5000000  )
        11           O   tau(  11) = (  0.0000000  0.0000000  1.0000000  )
        12           O   tau(  12) = (  0.5000000  0.0000000  0.5000000  )

     number of k points=    27
                       cart. coord. in units 2pi/alat
        k(    1) = (   0.0000000   0.0000000   0.0000000), wk =   0.0312500
        k(    2) = (   0.0000000   0.0000000   0.2419231), wk =   0.0625000
        k(    3) = (   0.0000000   0.0000000  -0.4838462), wk =   0.0312500
        k(    4) = (   0.0000000   0.2660215   0.0000000), wk =   0.0625000
        k(    5) = (   0.0000000   0.2660215   0.2419231), wk =   0.1250000
        k(    6) = (   0.0000000   0.2660215  -0.4838462), wk =   0.0625000
        k(    7) = (   0.0000000  -0.5320429   0.0000000), wk =   0.0312500
        k(    8) = (   0.0000000  -0.5320429   0.2419231), wk =   0.0625000
        k(    9) = (   0.0000000  -0.5320429  -0.4838462), wk =   0.0312500
        k(   10) = (   0.2500000   0.0000000   0.0000000), wk =   0.0625000
        k(   11) = (   0.2500000   0.0000000   0.2419231), wk =   0.1250000
        k(   12) = (   0.2500000   0.0000000  -0.4838462), wk =   0.0625000
        k(   13) = (   0.2500000   0.2660215   0.0000000), wk =   0.1250000
        k(   14) = (   0.2500000   0.2660215   0.2419231), wk =   0.2500000
        k(   15) = (   0.2500000   0.2660215  -0.4838462), wk =   0.1250000
        k(   16) = (   0.2500000  -0.5320429   0.0000000), wk =   0.0625000
        k(   17) = (   0.2500000  -0.5320429   0.2419231), wk =   0.1250000
        k(   18) = (   0.2500000  -0.5320429  -0.4838462), wk =   0.0625000
        k(   19) = (  -0.5000000   0.0000000   0.0000000), wk =   0.0312500
        k(   20) = (  -0.5000000   0.0000000   0.2419231), wk =   0.0625000
        k(   21) = (  -0.5000000   0.0000000  -0.4838462), wk =   0.0312500
        k(   22) = (  -0.5000000   0.2660215   0.0000000), wk =   0.0625000
        k(   23) = (  -0.5000000   0.2660215   0.2419231), wk =   0.1250000
        k(   24) = (  -0.5000000   0.2660215  -0.4838462), wk =   0.0625000
        k(   25) = (  -0.5000000  -0.5320429   0.0000000), wk =   0.0312500
        k(   26) = (  -0.5000000  -0.5320429   0.2419231), wk =   0.0625000
        k(   27) = (  -0.5000000  -0.5320429  -0.4838462), wk =   0.0312500

                       cryst. coord.
        k(    1) = (   0.0000000   0.0000000   0.0000000), wk =   0.0312500
        k(    2) = (   0.0000000   0.0000000   0.2500000), wk =   0.0625000
        k(    3) = (   0.0000000   0.0000000  -0.5000000), wk =   0.0312500
        k(    4) = (   0.0000000   0.2500000   0.0000000), wk =   0.0625000
        k(    5) = (   0.0000000   0.2500000   0.2500000), wk =   0.1250000
        k(    6) = (   0.0000000   0.2500000  -0.5000000), wk =   0.0625000
        k(    7) = (   0.0000000  -0.5000000   0.0000000), wk =   0.0312500
        k(    8) = (   0.0000000  -0.5000000   0.2500000), wk =   0.0625000
        k(    9) = (   0.0000000  -0.5000000  -0.5000000), wk =   0.0312500
        k(   10) = (   0.2500000   0.0000000   0.0000000), wk =   0.0625000
        k(   11) = (   0.2500000   0.0000000   0.2500000), wk =   0.1250000
        k(   12) = (   0.2500000   0.0000000  -0.5000000), wk =   0.0625000
        k(   13) = (   0.2500000   0.2500000   0.0000000), wk =   0.1250000
        k(   14) = (   0.2500000   0.2500000   0.2500000), wk =   0.2500000
        k(   15) = (   0.2500000   0.2500000  -0.5000000), wk =   0.1250000
        k(   16) = (   0.2500000  -0.5000000   0.0000000), wk =   0.0625000
        k(   17) = (   0.2500000  -0.5000000   0.2500000), wk =   0.1250000
        k(   18) = (   0.2500000  -0.5000000  -0.5000000), wk =   0.0625000
        k(   19) = (  -0.5000000   0.0000000   0.0000000), wk =   0.0312500
        k(   20) = (  -0.5000000   0.0000000   0.2500000), wk =   0.0625000
        k(   21) = (  -0.5000000   0.0000000  -0.5000000), wk =   0.0312500
        k(   22) = (  -0.5000000   0.2500000   0.0000000), wk =   0.0625000
        k(   23) = (  -0.5000000   0.2500000   0.2500000), wk =   0.1250000
        k(   24) = (  -0.5000000   0.2500000  -0.5000000), wk =   0.0625000
        k(   25) = (  -0.5000000  -0.5000000   0.0000000), wk =   0.0312500
        k(   26) = (  -0.5000000  -0.5000000   0.2500000), wk =   0.0625000
        k(   27) = (  -0.5000000  -0.5000000  -0.5000000), wk =   0.0312500

     Dense  grid:    43031 G-vectors     FFT dimensions: (  45,  45,  45)

     Dynamical RAM for                 wfc:       0.11 MB

     Dynamical RAM for     wfc (w. buffer):       0.87 MB

     Dynamical RAM for           str. fact:       0.04 MB

     Dynamical RAM for           local pot:       0.00 MB

     Dynamical RAM for          nlocal pot:       0.14 MB

     Dynamical RAM for                qrad:       1.01 MB

     Dynamical RAM for          rho,v,vnew:       0.15 MB

     Dynamical RAM for               rhoin:       0.05 MB

     Dynamical RAM for            rho*nmix:       0.29 MB

     Dynamical RAM for           G-vectors:       0.08 MB

     Dynamical RAM for          h,s,v(r/c):       0.05 MB

     Dynamical RAM for          <psi|beta>:       0.04 MB

     Dynamical RAM for                 psi:       0.44 MB

     Dynamical RAM for                hpsi:       0.44 MB

     Dynamical RAM for      wfcinit/wfcrot:       0.42 MB

     Estimated static dynamical RAM per process >       2.83 MB

     Estimated max dynamical RAM per process >       3.79 MB

     Estimated total dynamical RAM >     545.89 MB

     Initial potential from superposition of free atoms

     starting charge   81.99999, renormalised to   96.00000
     Starting wfcs are   68 randomized atomic wfcs

     total cpu time spent up to now is        0.5 secs

     Self-consistent Calculation

     iteration #  1     ecut=    50.00 Ry     beta= 0.70
     Davidson diagonalization with overlap
     ethr =  1.00E-02,  avg # of iterations =  2.0

     total cpu time spent up to now is        0.9 secs

     total energy              =    -650.01213468 Ry
     Harris-Foulkes estimate   =    -653.50812670 Ry
     estimated scf accuracy    <       4.75354546 Ry

     iteration #  2     ecut=    50.00 Ry     beta= 0.70
     Davidson diagonalization with overlap
     ethr =  4.95E-03,  avg # of iterations =  2.0

     total cpu time spent up to now is        1.4 secs

     total energy              =    -650.92048524 Ry
     Harris-Foulkes estimate   =    -651.00094852 Ry
     estimated scf accuracy    <       0.11723826 Ry

     iteration #  3     ecut=    50.00 Ry     beta= 0.70
     Davidson diagonalization with overlap
     ethr =  1.22E-04,  avg # of iterations =  4.0

     total cpu time spent up to now is        2.0 secs

     total energy              =    -650.94393389 Ry
     Harris-Foulkes estimate   =    -651.02778127 Ry
     estimated scf accuracy    <       0.20329697 Ry

     iteration #  4     ecut=    50.00 Ry     beta= 0.70
     Davidson diagonalization with overlap
     ethr =  1.22E-04,  avg # of iterations =  3.2

     total cpu time spent up to now is        2.5 secs

     total energy              =    -650.97929899 Ry
     Harris-Foulkes estimate   =    -650.98106286 Ry
     estimated scf accuracy    <       0.00276293 Ry

     iteration #  5     ecut=    50.00 Ry     beta= 0.70
     Davidson diagonalization with overlap
     ethr =  2.88E-06,  avg # of iterations =  3.5

     total cpu time spent up to now is        3.1 secs

     total energy              =    -650.98007804 Ry
     Harris-Foulkes estimate   =    -650.98154051 Ry
     estimated scf accuracy    <       0.00361867 Ry

     iteration #  6     ecut=    50.00 Ry     beta= 0.70
     Davidson diagonalization with overlap
     ethr =  2.88E-06,  avg # of iterations =  2.9

     total cpu time spent up to now is        3.6 secs

     total energy              =    -650.98053672 Ry
     Harris-Foulkes estimate   =    -650.98057850 Ry
     estimated scf accuracy    <       0.00008525 Ry

     iteration #  7     ecut=    50.00 Ry     beta= 0.70
     Davidson diagonalization with overlap
     ethr =  8.88E-08,  avg # of iterations =  3.0

     total cpu time spent up to now is        4.1 secs

     total energy              =    -650.98056948 Ry
     Harris-Foulkes estimate   =    -650.98057163 Ry
     estimated scf accuracy    <       0.00000538 Ry

     iteration #  8     ecut=    50.00 Ry     beta= 0.70
     Davidson diagonalization with overlap
     ethr =  5.61E-09,  avg # of iterations =  3.0

     total cpu time spent up to now is        4.5 secs

     total energy              =    -650.98057009 Ry
     Harris-Foulkes estimate   =    -650.98057021 Ry
     estimated scf accuracy    <       0.00000031 Ry

     iteration #  9     ecut=    50.00 Ry     beta= 0.70
     Davidson diagonalization with overlap
     ethr =  3.22E-10,  avg # of iterations =  3.2

     total cpu time spent up to now is        5.1 secs

     total energy              =    -650.98057017 Ry
     Harris-Foulkes estimate   =    -650.98057018 Ry
     estimated scf accuracy    <       0.00000002 Ry

     iteration # 10     ecut=    50.00 Ry     beta= 0.70
     Davidson diagonalization with overlap
     ethr =  2.31E-11,  avg # of iterations =  3.0

     total cpu time spent up to now is        5.6 secs

     total energy              =    -650.98057017 Ry
     Harris-Foulkes estimate   =    -650.98057018 Ry
     estimated scf accuracy    <          9.9E-09 Ry

     iteration # 11     ecut=    50.00 Ry     beta= 0.70
     Davidson diagonalization with overlap
     ethr =  1.03E-11,  avg # of iterations =  2.9

     total cpu time spent up to now is        6.1 secs

     total energy              =    -650.98057017 Ry
     Harris-Foulkes estimate   =    -650.98057017 Ry
     estimated scf accuracy    <          5.2E-10 Ry

     iteration # 12     ecut=    50.00 Ry     beta= 0.70
     Davidson diagonalization with overlap
     ethr =  5.43E-13,  avg # of iterations =  3.0

     total cpu time spent up to now is        6.6 secs

     End of self-consistent calculation

          k = 0.0000 0.0000 0.0000 (  5367 PWs)   bands (ev):

   -48.2017 -48.1799 -48.1745 -48.1668 -18.4260 -18.3931 -18.3273 -18.1224
   -18.1059 -17.9711 -17.9672 -17.8489 -17.8420 -17.8374 -17.7962 -17.7763
    -7.1728  -6.0001  -5.8838  -5.7189  -4.1310  -4.0717  -3.9737  -3.7508
     4.7636   5.0962   5.8685   5.9744   6.2919   6.9316   7.1333   7.1966
     7.8238   8.0888   8.1235   8.1999   8.2366   8.3574   8.3679   8.5178
     8.5939   8.5984   9.8739  10.2049  11.0287  11.3425  11.6331  11.7688

     occupation numbers 
     1.0000   1.0000   1.0000   1.0000   1.0000   1.0000   1.0000   1.0000
     1.0000   1.0000   1.0000   1.0000   1.0000   1.0000   1.0000   1.0000
     1.0000   1.0000   1.0000   1.0000   1.0000   1.0000   1.0000   1.0000
     1.0000   1.0000   1.0000   1.0000   1.0000   1.0000   1.0000   1.0000
     1.0000   1.0000   1.0000   1.0000   1.0000   1.0000   1.0000   1.0000
     1.0000   1.0000   1.0000   1.0000   1.0000   1.0000   1.0000   1.0000

          k = 0.0000 0.0000 0.2419 (  5351 PWs)   bands (ev):

   -48.1985 -48.1831 -48.1733 -48.1679 -18.3808 -18.3739 -18.3165 -18.1546
   -18.0993 -17.9770 -17.9744 -17.8581 -17.8410 -17.8330 -17.8324 -17.7860
    -6.9731  -5.9616  -5.9514  -5.8789  -4.1126  -4.0749  -3.9685  -3.8115
     4.9695   5.3862   5.7748   6.2659   6.5004   6.8858   7.3072   7.4098
     7.4924   7.5609   7.7813   7.9520   8.0300   8.1586   8.2152   8.7957
     9.0755   9.2116   9.7148  10.1542  10.1671  11.0780  11.3578  11.6839

     occupation numbers 
     1.0000   1.0000   1.0000   1.0000   1.0000   1.0000   1.0000   1.0000
     1.0000   1.0000   1.0000   1.0000   1.0000   1.0000   1.0000   1.0000
     1.0000   1.0000   1.0000   1.0000   1.0000   1.0000   1.0000   1.0000
     1.0000   1.0000   1.0000   1.0000   1.0000   1.0000   1.0000   1.0000
     1.0000   1.0000   1.0000   1.0000   1.0000   1.0000   1.0000   1.0000
     1.0000   1.0000   1.0000   1.0000   1.0000   1.0000   1.0000   1.0000

          k = 0.0000 0.0000-0.4838 (  5370 PWs)   bands (ev):

   -48.1908 -48.1908 -48.1706 -48.1706 -18.3332 -18.3332 -18.2695 -18.2695
   -17.9950 -17.9950 -17.9817 -17.9817 -17.8314 -17.8314 -17.8092 -17.8092
    -6.4775  -6.4774  -5.8982  -5.8981  -4.0873  -4.0873  -3.9181  -3.9181
     5.4234   5.4234   6.2047   6.2047   7.0461   7.0461   7.0576   7.0577
     7.0771   7.0772   7.7164   7.7164   8.1339   8.1339   8.7033   8.7033
     9.4182   9.4182   9.8468   9.8468   9.8766   9.8766  11.4888  11.4888

     occupation numbers 
     1.0000   1.0000   1.0000   1.0000   1.0000   1.0000   1.0000   1.0000
     1.0000   1.0000   1.0000   1.0000   1.0000   1.0000   1.0000   1.0000
     1.0000   1.0000   1.0000   1.0000   1.0000   1.0000   1.0000   1.0000
     1.0000   1.0000   1.0000   1.0000   1.0000   1.0000   1.0000   1.0000
     1.0000   1.0000   1.0000   1.0000   1.0000   1.0000   1.0000   1.0000
     1.0000   1.0000   1.0000   1.0000   1.0000   1.0000   1.0000   1.0000

          k = 0.0000 0.2660 0.0000 (  5359 PWs)   bands (ev):

   -48.1994 -48.1791 -48.1752 -48.1690 -18.3656 -18.3272 -18.3111 -18.1184
   -18.0608 -17.9785 -17.9659 -17.9224 -17.9111 -17.8664 -17.8242 -17.8014
    -6.9597  -5.9945  -5.7669  -5.7183  -4.3325  -4.1037  -4.0516  -3.7324
     5.0163   5.3335   5.5272   5.6840   5.8287   6.3693   6.9756   7.8375
     7.8640   8.0762   8.1787   8.2286   8.3468   8.4877   8.5696   8.5884
     9.0688   9.2259   9.3557  10.0101  11.1456  11.3641  11.5511  11.5595

     occupation numbers 
     1.0000   1.0000   1.0000   1.0000   1.0000   1.0000   1.0000   1.0000
     1.0000   1.0000   1.0000   1.0000   1.0000   1.0000   1.0000   1.0000
     1.0000   1.0000   1.0000   1.0000   1.0000   1.0000   1.0000   1.0000
     1.0000   1.0000   1.0000   1.0000   1.0000   1.0000   1.0000   1.0000
     1.0000   1.0000   1.0000   1.0000   1.0000   1.0000   1.0000   1.0000
     1.0000   1.0000   1.0000   1.0000   1.0000   1.0000   1.0000   1.0000

          k = 0.0000 0.2660 0.2419 (  5365 PWs)   bands (ev):

   -48.1964 -48.1820 -48.1744 -48.1699 -18.3221 -18.3208 -18.3026 -18.1155
   -18.1063 -18.0111 -17.9660 -17.8990 -17.8981 -17.8551 -17.8379 -17.8271
    -6.7866  -5.9469  -5.9110  -5.7845  -4.2949  -4.0961  -4.0697  -3.8069
     5.1386   5.6256   5.6898   5.8055   5.9041   6.5687   7.0805   7.2920
     7.6457   7.7117   7.9053   8.1662   8.2773   8.3976   8.4009   9.1595
     9.3668   9.4412   9.4733   9.9748  10.4029  11.0385  11.3880  11.5936

     occupation numbers 
     1.0000   1.0000   1.0000   1.0000   1.0000   1.0000   1.0000   1.0000
     1.0000   1.0000   1.0000   1.0000   1.0000   1.0000   1.0000   1.0000
     1.0000   1.0000   1.0000   1.0000   1.0000   1.0000   1.0000   1.0000
     1.0000   1.0000   1.0000   1.0000   1.0000   1.0000   1.0000   1.0000
     1.0000   1.0000   1.0000   1.0000   1.0000   1.0000   1.0000   1.0000
     1.0000   1.0000   1.0000   1.0000   1.0000   1.0000   1.0000   1.0000

          k = 0.0000 0.2660-0.4838 (  5362 PWs)   bands (ev):

   -48.1892 -48.1892 -48.1722 -48.1722 -18.3053 -18.3053 -18.2152 -18.2152
   -18.0770 -18.0770 -17.9233 -17.9233 -17.8691 -17.8691 -17.8451 -17.8451
    -6.3584  -6.3584  -5.8507  -5.8507  -4.1991  -4.1991  -3.9585  -3.9585
     5.4427   5.4427   6.1978   6.1979   6.5061   6.5062   6.7931   6.7931
     7.0573   7.0573   8.1464   8.1464   8.3588   8.3588   9.0339   9.0339
     9.5370   9.5370   9.6491   9.6491  10.1892  10.1892  11.4835  11.4835

     occupation numbers 
     1.0000   1.0000   1.0000   1.0000   1.0000   1.0000   1.0000   1.0000
     1.0000   1.0000   1.0000   1.0000   1.0000   1.0000   1.0000   1.0000
     1.0000   1.0000   1.0000   1.0000   1.0000   1.0000   1.0000   1.0000
     1.0000   1.0000   1.0000   1.0000   1.0000   1.0000   1.0000   1.0000
     1.0000   1.0000   1.0000   1.0000   1.0000   1.0000   1.0000   1.0000
     1.0000   1.0000   1.0000   1.0000   1.0000   1.0000   1.0000   1.0000

          k = 0.0000-0.5320 0.0000 (  5380 PWs)   bands (ev):

   -48.1968 -48.1777 -48.1767 -48.1716 -18.2935 -18.2775 -18.2062 -18.1134
   -18.0625 -18.0080 -17.9908 -17.9731 -17.9603 -17.9147 -17.8854 -17.8069
    -6.6990  -5.9888  -5.7177  -5.6292  -4.6391  -4.2542  -3.9693  -3.7138
     4.8476   5.3412   5.3475   5.7900   6.0255   6.1999   6.8531   7.5114
     7.9038   8.0015   8.2455   8.3448   8.4576   8.4694   8.5339   8.7857
     9.1718   9.2765   9.9148   9.9607  11.2654  11.3425  11.4502  11.4695

     occupation numbers 
     1.0000   1.0000   1.0000   1.0000   1.0000   1.0000   1.0000   1.0000
     1.0000   1.0000   1.0000   1.0000   1.0000   1.0000   1.0000   1.0000
     1.0000   1.0000   1.0000   1.0000   1.0000   1.0000   1.0000   1.0000
     1.0000   1.0000   1.0000   1.0000   1.0000   1.0000   1.0000   1.0000
     1.0000   1.0000   1.0000   1.0000   1.0000   1.0000   1.0000   1.0000
     1.0000   1.0000   1.0000   1.0000   1.0000   1.0000   1.0000   1.0000

          k = 0.0000-0.5320 0.2419 (  5366 PWs)   bands (ev):

   -48.1940 -48.1805 -48.1759 -48.1724 -18.2866 -18.2345 -18.2238 -18.1320
   -18.1089 -18.0193 -17.9944 -17.9590 -17.9284 -17.9097 -17.8695 -17.8300
    -6.5631  -5.9321  -5.8707  -5.6780  -4.5510  -4.1832  -4.0783  -3.8022
     5.1782   5.3147   5.5830   5.6592   6.2920   6.4555   7.1649   7.1771
     7.2166   7.5918   7.7378   7.9989   8.6886   8.7245   9.0578   9.1793
     9.2044   9.2273   9.9051  10.1160  10.6270  11.1580  11.3429  11.4159

     occupation numbers 
     1.0000   1.0000   1.0000   1.0000   1.0000   1.0000   1.0000   1.0000
     1.0000   1.0000   1.0000   1.0000   1.0000   1.0000   1.0000   1.0000
     1.0000   1.0000   1.0000   1.0000   1.0000   1.0000   1.0000   1.0000
     1.0000   1.0000   1.0000   1.0000   1.0000   1.0000   1.0000   1.0000
     1.0000   1.0000   1.0000   1.0000   1.0000   1.0000   1.0000   1.0000
     1.0000   1.0000   1.0000   1.0000   1.0000   1.0000   1.0000   1.0000

          k = 0.0000-0.5320-0.4838 (  5388 PWs)   bands (ev):

   -48.1873 -48.1873 -48.1741 -48.1741 -18.2603 -18.2603 -18.1437 -18.1437
   -18.1285 -18.1285 -17.9614 -17.9614 -17.8904 -17.8904 -17.8656 -17.8656
    -6.2254  -6.2253  -5.8011  -5.8010  -4.3251  -4.3251  -4.0013  -4.0013
     5.4288   5.4288   6.0585   6.0585   6.2519   6.2519   6.9470   6.9470
     7.0114   7.0114   7.7895   7.7895   9.0637   9.0638   9.2281   9.2281
     9.3849   9.3849   9.6859   9.6859  10.5745  10.5745  11.3628  11.3628

     occupation numbers 
     1.0000   1.0000   1.0000   1.0000   1.0000   1.0000   1.0000   1.0000
     1.0000   1.0000   1.0000   1.0000   1.0000   1.0000   1.0000   1.0000
     1.0000   1.0000   1.0000   1.0000   1.0000   1.0000   1.0000   1.0000
     1.0000   1.0000   1.0000   1.0000   1.0000   1.0000   1.0000   1.0000
     1.0000   1.0000   1.0000   1.0000   1.0000   1.0000   1.0000   1.0000
     1.0000   1.0000   1.0000   1.0000   1.0000   1.0000   1.0000   1.0000

          k = 0.2500 0.0000 0.0000 (  5398 PWs)   bands (ev):

   -48.1977 -48.1785 -48.1780 -48.1687 -18.3511 -18.3416 -18.2772 -18.0829
   -18.0709 -18.0254 -18.0211 -17.8825 -17.8794 -17.8733 -17.8411 -17.8039
    -6.8784  -5.9530  -5.8828  -5.7543  -4.2406  -4.2063  -4.0310  -3.7603
     5.3432   5.3692   5.4394   5.7498   6.0510   6.9466   6.9491   7.1706
     7.5708   7.6383   8.1517   8.3512   8.5112   8.6412   8.6789   8.7592
     8.8173   8.9197   9.2703  10.0227  10.6920  11.1077  11.2671  11.4816

     occupation numbers 
     1.0000   1.0000   1.0000   1.0000   1.0000   1.0000   1.0000   1.0000
     1.0000   1.0000   1.0000   1.0000   1.0000   1.0000   1.0000   1.0000
     1.0000   1.0000   1.0000   1.0000   1.0000   1.0000   1.0000   1.0000
     1.0000   1.0000   1.0000   1.0000   1.0000   1.0000   1.0000   1.0000
     1.0000   1.0000   1.0000   1.0000   1.0000   1.0000   1.0000   1.0000
     1.0000   1.0000   1.0000   1.0000   1.0000   1.0000   1.0000   1.0000

          k = 0.2500 0.0000 0.2419 (  5384 PWs)   bands (ev):

   -48.1948 -48.1809 -48.1770 -48.1701 -18.3262 -18.3203 -18.2768 -18.1424
   -18.0626 -18.0156 -17.9956 -17.9117 -17.8735 -17.8727 -17.8435 -17.8160
    -6.7207  -5.9374  -5.9271  -5.8868  -4.1847  -4.1841  -4.0614  -3.8448
     5.5002   5.6821   5.7213   5.8931   6.1133   6.8922   7.0446   7.0655
     7.1510   7.7729   7.8149   8.3587   8.3895   8.4487   8.4746   8.9698
     9.0216   9.3120   9.3738   9.9122  10.1911  10.7967  10.9525  11.1337

     occupation numbers 
     1.0000   1.0000   1.0000   1.0000   1.0000   1.0000   1.0000   1.0000
     1.0000   1.0000   1.0000   1.0000   1.0000   1.0000   1.0000   1.0000
     1.0000   1.0000   1.0000   1.0000   1.0000   1.0000   1.0000   1.0000
     1.0000   1.0000   1.0000   1.0000   1.0000   1.0000   1.0000   1.0000
     1.0000   1.0000   1.0000   1.0000   1.0000   1.0000   1.0000   1.0000
     1.0000   1.0000   1.0000   1.0000   1.0000   1.0000   1.0000   1.0000

          k = 0.2500 0.0000-0.4838 (  5376 PWs)   bands (ev):

   -48.1879 -48.1879 -48.1736 -48.1736 -18.2943 -18.2943 -18.2410 -18.2410
   -18.0004 -18.0004 -17.9956 -17.9956 -17.8551 -17.8551 -17.8455 -17.8455
    -6.3314  -6.3313  -5.9063  -5.9063  -4.1274  -4.1274  -4.0283  -4.0283
     5.8015   5.8015   6.4274   6.4275   6.4860   6.4860   6.6464   6.6464
     6.9443   6.9443   8.3329   8.3330   8.4617   8.4617   8.8073   8.8073
     9.3599   9.3599   9.4847   9.4847   9.9798   9.9798  10.8546  10.8546

     occupation numbers 
     1.0000   1.0000   1.0000   1.0000   1.0000   1.0000   1.0000   1.0000
     1.0000   1.0000   1.0000   1.0000   1.0000   1.0000   1.0000   1.0000
     1.0000   1.0000   1.0000   1.0000   1.0000   1.0000   1.0000   1.0000
     1.0000   1.0000   1.0000   1.0000   1.0000   1.0000   1.0000   1.0000
     1.0000   1.0000   1.0000   1.0000   1.0000   1.0000   1.0000   1.0000
     1.0000   1.0000   1.0000   1.0000   1.0000   1.0000   1.0000   1.0000

          k = 0.2500 0.2660 0.0000 (  5369 PWs)   bands (ev):

   -48.1959 -48.1792 -48.1772 -48.1704 -18.3576 -18.3308 -18.2624 -18.0854
   -18.0519 -18.0375 -18.0184 -17.9807 -17.8612 -17.8569 -17.8109 -17.8096
    -6.7678  -5.9499  -5.9164  -5.7548  -4.4167  -4.2991  -3.8855  -3.6888
     5.2421   5.6193   5.6655   5.8391   6.0179   6.4858   6.7171   7.4148
     7.7362   7.8726   8.0630   8.1450   8.5124   8.6574   8.8326   8.8499
     9.0567   9.1612   9.3244   9.3413  10.6489  10.9852  11.1823  11.3900

     occupation numbers 
     1.0000   1.0000   1.0000   1.0000   1.0000   1.0000   1.0000   1.0000
     1.0000   1.0000   1.0000   1.0000   1.0000   1.0000   1.0000   1.0000
     1.0000   1.0000   1.0000   1.0000   1.0000   1.0000   1.0000   1.0000
     1.0000   1.0000   1.0000   1.0000   1.0000   1.0000   1.0000   1.0000
     1.0000   1.0000   1.0000   1.0000   1.0000   1.0000   1.0000   1.0000
     1.0000   1.0000   1.0000   1.0000   1.0000   1.0000   1.0000   1.0000

          k = 0.2500 0.2660 0.2419 (  5374 PWs)   bands (ev):

   -48.1932 -48.1803 -48.1775 -48.1717 -18.3490 -18.3360 -18.2656 -18.1351
   -18.0573 -18.0100 -17.9985 -17.9495 -17.8728 -17.8402 -17.8368 -17.8147
    -6.6374  -5.9873  -5.9454  -5.8596  -4.3436  -4.2183  -3.9530  -3.7752
     5.4344   5.7973   5.8627   6.0169   6.0638   6.5942   6.7536   7.3776
     7.3811   7.8485   7.9860   8.0461   8.1927   8.4653   8.7680   8.8772
     9.0885   9.3810   9.5497   9.5938  10.3912  10.7390  10.8005  11.1396

     occupation numbers 
     1.0000   1.0000   1.0000   1.0000   1.0000   1.0000   1.0000   1.0000
     1.0000   1.0000   1.0000   1.0000   1.0000   1.0000   1.0000   1.0000
     1.0000   1.0000   1.0000   1.0000   1.0000   1.0000   1.0000   1.0000
     1.0000   1.0000   1.0000   1.0000   1.0000   1.0000   1.0000   1.0000
     1.0000   1.0000   1.0000   1.0000   1.0000   1.0000   1.0000   1.0000
     1.0000   1.0000   1.0000   1.0000   1.0000   1.0000   1.0000   1.0000

          k = 0.2500 0.2660-0.4838 (  5370 PWs)   bands (ev):

   -48.1867 -48.1867 -48.1747 -48.1747 -18.3428 -18.3428 -18.2221 -18.2221
   -18.0334 -18.0334 -17.9233 -17.9233 -17.8863 -17.8863 -17.8259 -17.8259
    -6.3116  -6.3116  -5.9222  -5.9221  -4.1847  -4.1847  -3.9617  -3.9617
     5.7799   5.7799   6.2116   6.2116   6.4493   6.4493   6.9767   6.9768
     7.2271   7.2271   7.8196   7.8197   8.4809   8.4810   8.9685   8.9685
     9.3686   9.3686   9.5980   9.5980  10.0469  10.0469  10.8703  10.8703

     occupation numbers 
     1.0000   1.0000   1.0000   1.0000   1.0000   1.0000   1.0000   1.0000
     1.0000   1.0000   1.0000   1.0000   1.0000   1.0000   1.0000   1.0000
     1.0000   1.0000   1.0000   1.0000   1.0000   1.0000   1.0000   1.0000
     1.0000   1.0000   1.0000   1.0000   1.0000   1.0000   1.0000   1.0000
     1.0000   1.0000   1.0000   1.0000   1.0000   1.0000   1.0000   1.0000
     1.0000   1.0000   1.0000   1.0000   1.0000   1.0000   1.0000   1.0000

          k = 0.2500-0.5320 0.0000 (  5376 PWs)   bands (ev):

   -48.1939 -48.1796 -48.1768 -48.1725 -18.3590 -18.2915 -18.2464 -18.1562
   -18.1382 -18.0108 -17.9865 -17.8739 -17.8703 -17.8627 -17.8623 -17.8184
    -6.6411  -5.9468  -5.9438  -5.7553  -4.6195  -4.3509  -3.7508  -3.6391
     5.2668   5.6165   5.6373   6.0415   6.1291   6.4822   6.5726   7.7137
     7.7383   8.0670   8.0982   8.1419   8.3624   8.5341   8.6416   8.7487
     8.8904   8.9959   9.4993   9.6534  10.6718  10.6741  11.2214  11.2885

     occupation numbers 
     1.0000   1.0000   1.0000   1.0000   1.0000   1.0000   1.0000   1.0000
     1.0000   1.0000   1.0000   1.0000   1.0000   1.0000   1.0000   1.0000
     1.0000   1.0000   1.0000   1.0000   1.0000   1.0000   1.0000   1.0000
     1.0000   1.0000   1.0000   1.0000   1.0000   1.0000   1.0000   1.0000
     1.0000   1.0000   1.0000   1.0000   1.0000   1.0000   1.0000   1.0000
     1.0000   1.0000   1.0000   1.0000   1.0000   1.0000   1.0000   1.0000

          k = 0.2500-0.5320 0.2419 (  5376 PWs)   bands (ev):

   -48.1914 -48.1793 -48.1786 -48.1735 -18.3472 -18.3069 -18.2986 -18.2263
   -18.0475 -17.9812 -17.9486 -17.8885 -17.8717 -17.8636 -17.8601 -17.8337
    -6.5350  -5.9720  -5.9628  -5.9216  -4.4739  -4.2238  -3.8677  -3.7340
     5.5654   5.5788   5.7486   6.1299   6.2618   6.7036   6.7716   7.5136
     7.5181   7.7490   7.7861   7.8511   8.5275   8.5766   8.6279   8.7206
     8.9455   9.3503   9.5117   9.8677  10.5878  10.7100  10.7705  10.9565

     occupation numbers 
     1.0000   1.0000   1.0000   1.0000   1.0000   1.0000   1.0000   1.0000
     1.0000   1.0000   1.0000   1.0000   1.0000   1.0000   1.0000   1.0000
     1.0000   1.0000   1.0000   1.0000   1.0000   1.0000   1.0000   1.0000
     1.0000   1.0000   1.0000   1.0000   1.0000   1.0000   1.0000   1.0000
     1.0000   1.0000   1.0000   1.0000   1.0000   1.0000   1.0000   1.0000
     1.0000   1.0000   1.0000   1.0000   1.0000   1.0000   1.0000   1.0000

          k = 0.2500-0.5320-0.4838 (  5368 PWs)   bands (ev):

   -48.1853 -48.1853 -48.1760 -48.1760 -18.3244 -18.3244 -18.3059 -18.3059
   -17.9497 -17.9497 -17.9313 -17.9313 -17.8714 -17.8714 -17.8531 -17.8531
    -6.2548  -6.2547  -5.9880  -5.9879  -4.1580  -4.1580  -3.9662  -3.9662
     5.6730   5.6730   6.2916   6.2917   6.5088   6.5089   7.0291   7.0291
     7.2726   7.2726   7.7816   7.7816   8.5774   8.5774   8.6443   8.6443
     9.5188   9.5188   9.6240   9.6240  10.3576  10.3576  10.7279  10.7279

     occupation numbers 
     1.0000   1.0000   1.0000   1.0000   1.0000   1.0000   1.0000   1.0000
     1.0000   1.0000   1.0000   1.0000   1.0000   1.0000   1.0000   1.0000
     1.0000   1.0000   1.0000   1.0000   1.0000   1.0000   1.0000   1.0000
     1.0000   1.0000   1.0000   1.0000   1.0000   1.0000   1.0000   1.0000
     1.0000   1.0000   1.0000   1.0000   1.0000   1.0000   1.0000   1.0000
     1.0000   1.0000   1.0000   1.0000   1.0000   1.0000   1.0000   1.0000

          k =-0.5000 0.0000 0.0000 (  5406 PWs)   bands (ev):

   -48.1881 -48.1881 -48.1734 -48.1734 -18.2450 -18.2450 -18.1533 -18.1533
   -18.0607 -18.0607 -18.0004 -18.0004 -17.9616 -17.9616 -17.8225 -17.8225
    -6.2293  -6.2292  -5.8478  -5.8477  -4.4246  -4.4245  -3.8494  -3.8494
     5.1218   5.1218   6.4709   6.4709   6.4996   6.4996   6.6146   6.6146
     7.1198   7.1198   8.1756   8.1757   8.3812   8.3812   8.9264   8.9264
     9.4521   9.4521   9.6012   9.6012  10.4181  10.4181  11.2666  11.2666

     occupation numbers 
     1.0000   1.0000   1.0000   1.0000   1.0000   1.0000   1.0000   1.0000
     1.0000   1.0000   1.0000   1.0000   1.0000   1.0000   1.0000   1.0000
     1.0000   1.0000   1.0000   1.0000   1.0000   1.0000   1.0000   1.0000
     1.0000   1.0000   1.0000   1.0000   1.0000   1.0000   1.0000   1.0000
     1.0000   1.0000   1.0000   1.0000   1.0000   1.0000   1.0000   1.0000
     1.0000   1.0000   1.0000   1.0000   1.0000   1.0000   1.0000   1.0000

          k =-0.5000 0.0000 0.2419 (  5388 PWs)   bands (ev):

   -48.1859 -48.1859 -48.1755 -48.1755 -18.2415 -18.2415 -18.1873 -18.1873
   -18.0485 -18.0485 -17.9791 -17.9791 -17.9508 -17.9508 -17.8363 -17.8363
    -6.1769  -6.1768  -5.9081  -5.9080  -4.3494  -4.3494  -3.9436  -3.9436
     5.4319   5.4320   6.3781   6.3781   6.5833   6.5833   6.9039   6.9039
     6.9604   6.9604   7.9580   7.9580   8.4775   8.4775   8.9418   8.9419
     9.4140   9.4141   9.5486   9.5486  10.3100  10.3100  10.7479  10.7479

     occupation numbers 
     1.0000   1.0000   1.0000   1.0000   1.0000   1.0000   1.0000   1.0000
     1.0000   1.0000   1.0000   1.0000   1.0000   1.0000   1.0000   1.0000
     1.0000   1.0000   1.0000   1.0000   1.0000   1.0000   1.0000   1.0000
     1.0000   1.0000   1.0000   1.0000   1.0000   1.0000   1.0000   1.0000
     1.0000   1.0000   1.0000   1.0000   1.0000   1.0000   1.0000   1.0000
     1.0000   1.0000   1.0000   1.0000   1.0000   1.0000   1.0000   1.0000

          k =-0.5000 0.0000-0.4838 (  5380 PWs)   bands (ev):

   -48.1807 -48.1807 -48.1807 -48.1807 -18.2256 -18.2256 -18.2256 -18.2256
   -18.0152 -18.0152 -18.0152 -18.0152 -17.8810 -17.8810 -17.8810 -17.8810
    -6.0464  -6.0464  -6.0464  -6.0463  -4.1560  -4.1560  -4.1559  -4.1559
     6.1927   6.1927   6.1928   6.1928   6.4870   6.4870   6.4870   6.4870
     7.5353   7.5353   7.5354   7.5354   8.9004   8.9004   8.9004   8.9004
     9.3017   9.3017   9.3017   9.3018  10.2332  10.2332  10.2332  10.2332

     occupation numbers 
     1.0000   1.0000   1.0000   1.0000   1.0000   1.0000   1.0000   1.0000
     1.0000   1.0000   1.0000   1.0000   1.0000   1.0000   1.0000   1.0000
     1.0000   1.0000   1.0000   1.0000   1.0000   1.0000   1.0000   1.0000
     1.0000   1.0000   1.0000   1.0000   1.0000   1.0000   1.0000   1.0000
     1.0000   1.0000   1.0000   1.0000   1.0000   1.0000   1.0000   1.0000
     1.0000   1.0000   1.0000   1.0000   1.0000   1.0000   1.0000   1.0000

          k =-0.5000 0.2660 0.0000 (  5394 PWs)   bands (ev):

   -48.1874 -48.1874 -48.1740 -48.1740 -18.3239 -18.3239 -18.1531 -18.1531
   -18.1423 -18.1423 -17.9115 -17.9115 -17.8721 -17.8721 -17.8339 -17.8339
    -6.3163  -6.3163  -5.8483  -5.8483  -4.4821  -4.4821  -3.6997  -3.6997
     5.4073   5.4074   6.3273   6.3273   6.6389   6.6389   6.8463   6.8464
     7.0861   7.0861   8.1698   8.1699   8.7122   8.7122   8.7572   8.7573
     8.9296   8.9296   9.7286   9.7286   9.9581   9.9581  11.2429  11.2430

     occupation numbers 
     1.0000   1.0000   1.0000   1.0000   1.0000   1.0000   1.0000   1.0000
     1.0000   1.0000   1.0000   1.0000   1.0000   1.0000   1.0000   1.0000
     1.0000   1.0000   1.0000   1.0000   1.0000   1.0000   1.0000   1.0000
     1.0000   1.0000   1.0000   1.0000   1.0000   1.0000   1.0000   1.0000
     1.0000   1.0000   1.0000   1.0000   1.0000   1.0000   1.0000   1.0000
     1.0000   1.0000   1.0000   1.0000   1.0000   1.0000   1.0000   1.0000

          k =-0.5000 0.2660 0.2419 (  5376 PWs)   bands (ev):

   -48.1855 -48.1855 -48.1759 -48.1759 -18.3278 -18.3278 -18.2540 -18.2540
   -18.0257 -18.0257 -17.9012 -17.9012 -17.8849 -17.8849 -17.8411 -17.8411
    -6.2701  -6.2700  -5.9495  -5.9494  -4.3463  -4.3463  -3.8041  -3.8041
     5.6790   5.6790   6.4300   6.4300   6.6759   6.6759   6.8543   6.8543
     7.0468   7.0469   7.9662   7.9662   8.6395   8.6395   8.8941   8.8942
     8.9980   8.9980   9.6346   9.6347   9.9299   9.9300  10.7835  10.7835

     occupation numbers 
     1.0000   1.0000   1.0000   1.0000   1.0000   1.0000   1.0000   1.0000
     1.0000   1.0000   1.0000   1.0000   1.0000   1.0000   1.0000   1.0000
     1.0000   1.0000   1.0000   1.0000   1.0000   1.0000   1.0000   1.0000
     1.0000   1.0000   1.0000   1.0000   1.0000   1.0000   1.0000   1.0000
     1.0000   1.0000   1.0000   1.0000   1.0000   1.0000   1.0000   1.0000
     1.0000   1.0000   1.0000   1.0000   1.0000   1.0000   1.0000   1.0000

          k =-0.5000 0.2660-0.4838 (  5372 PWs)   bands (ev):

   -48.1807 -48.1807 -48.1807 -48.1807 -18.3146 -18.3145 -18.3145 -18.3145
   -17.9330 -17.9330 -17.9330 -17.9330 -17.8687 -17.8687 -17.8687 -17.8687
    -6.1346  -6.1346  -6.1345  -6.1345  -4.0621  -4.0621  -4.0620  -4.0620
     6.3107   6.3107   6.3108   6.3108   6.6277   6.6277   6.6277   6.6277
     7.4390   7.4390   7.4390   7.4390   8.8605   8.8605   8.8605   8.8605
     9.3048   9.3048   9.3048   9.3048  10.0977  10.0977  10.0977  10.0977

     occupation numbers 
     1.0000   1.0000   1.0000   1.0000   1.0000   1.0000   1.0000   1.0000
     1.0000   1.0000   1.0000   1.0000   1.0000   1.0000   1.0000   1.0000
     1.0000   1.0000   1.0000   1.0000   1.0000   1.0000   1.0000   1.0000
     1.0000   1.0000   1.0000   1.0000   1.0000   1.0000   1.0000   1.0000
     1.0000   1.0000   1.0000   1.0000   1.0000   1.0000   1.0000   1.0000
     1.0000   1.0000   1.0000   1.0000   1.0000   1.0000   1.0000   1.0000

          k =-0.5000-0.5320 0.0000 (  5364 PWs)   bands (ev):

   -48.1867 -48.1867 -48.1746 -48.1746 -18.3802 -18.3802 -18.2010 -18.2010
   -18.1303 -18.1303 -17.8636 -17.8636 -17.8461 -17.8461 -17.8088 -17.8088
    -6.3980  -6.3980  -5.8488  -5.8488  -4.5231  -4.5231  -3.5718  -3.5717
     5.9675   5.9675   6.2005   6.2005   6.4954   6.4954   7.0287   7.0288
     7.0532   7.0532   8.2080   8.2081   8.6033   8.6033   8.9070   8.9070
     9.0879   9.0879   9.4226   9.4226   9.4241   9.4241  11.1719  11.1719

     occupation numbers 
     1.0000   1.0000   1.0000   1.0000   1.0000   1.0000   1.0000   1.0000
     1.0000   1.0000   1.0000   1.0000   1.0000   1.0000   1.0000   1.0000
     1.0000   1.0000   1.0000   1.0000   1.0000   1.0000   1.0000   1.0000
     1.0000   1.0000   1.0000   1.0000   1.0000   1.0000   1.0000   1.0000
     1.0000   1.0000   1.0000   1.0000   1.0000   1.0000   1.0000   1.0000
     1.0000   1.0000   1.0000   1.0000   1.0000   1.0000   1.0000   1.0000

          k =-0.5000-0.5320 0.2419 (  5360 PWs)   bands (ev):

   -48.1850 -48.1850 -48.1764 -48.1764 -18.3858 -18.3858 -18.3023 -18.3023
   -18.0120 -18.0120 -17.8643 -17.8643 -17.8451 -17.8451 -17.8163 -17.8163
    -6.3558  -6.3558  -5.9902  -5.9901  -4.3325  -4.3324  -3.6835  -3.6834
     6.1882   6.1882   6.3204   6.3204   6.5880   6.5880   6.9066   6.9067
     7.1128   7.1128   8.1909   8.1909   8.3437   8.3438   8.6807   8.6807
     9.3226   9.3226   9.4481   9.4481   9.5724   9.5724  10.7491  10.7491

     occupation numbers 
     1.0000   1.0000   1.0000   1.0000   1.0000   1.0000   1.0000   1.0000
     1.0000   1.0000   1.0000   1.0000   1.0000   1.0000   1.0000   1.0000
     1.0000   1.0000   1.0000   1.0000   1.0000   1.0000   1.0000   1.0000
     1.0000   1.0000   1.0000   1.0000   1.0000   1.0000   1.0000   1.0000
     1.0000   1.0000   1.0000   1.0000   1.0000   1.0000   1.0000   1.0000
     1.0000   1.0000   1.0000   1.0000   1.0000   1.0000   1.0000   1.0000

          k =-0.5000-0.5320-0.4838 (  5376 PWs)   bands (ev):

   -48.1807 -48.1807 -48.1807 -48.1807 -18.3732 -18.3732 -18.3732 -18.3732
   -17.9041 -17.9041 -17.9041 -17.9041 -17.8336 -17.8336 -17.8336 -17.8336
    -6.2156  -6.2155  -6.2155  -6.2155  -3.9755  -3.9755  -3.9755  -3.9755
     6.4660   6.4660   6.4660   6.4660   6.7391   6.7391   6.7391   6.7391
     7.4482   7.4482   7.4482   7.4482   8.5182   8.5183   8.5183   8.5183
     9.4699   9.4700   9.4700   9.4700  10.0065  10.0065  10.0065  10.0065

     occupation numbers 
     1.0000   1.0000   1.0000   1.0000   1.0000   1.0000   1.0000   1.0000
     1.0000   1.0000   1.0000   1.0000   1.0000   1.0000   1.0000   1.0000
     1.0000   1.0000   1.0000   1.0000   1.0000   1.0000   1.0000   1.0000
     1.0000   1.0000   1.0000   1.0000   1.0000   1.0000   1.0000   1.0000
     1.0000   1.0000   1.0000   1.0000   1.0000   1.0000   1.0000   1.0000
     1.0000   1.0000   1.0000   1.0000   1.0000   1.0000   1.0000   1.0000

     highest occupied level (ev):    11.7688

!    total energy              =    -650.98057017 Ry
     Harris-Foulkes estimate   =    -650.98057017 Ry
     estimated scf accuracy    <          8.6E-11 Ry

     The total energy is the sum of the following terms:

     one-electron contribution =    -143.20176676 Ry
     hartree contribution      =     120.79362792 Ry
     xc contribution           =    -103.54745495 Ry
     ewald contribution        =    -525.02497638 Ry

     convergence has been achieved in  12 iterations

     Forces acting on atoms (cartesian axes, Ry/au):

     atom    1 type  1   force =    -0.00000964    0.00000274    0.00001281
     atom    2 type  1   force =     0.00000964   -0.00000274    0.00001281
     atom    3 type  1   force =    -0.00000964   -0.00000274   -0.00001281
     atom    4 type  1   force =     0.00000964    0.00000274   -0.00001281
     atom    5 type  2   force =     0.00000000    0.00000000    0.00004682
     atom    6 type  2   force =     0.00000000    0.00000000    0.00004586
     atom    7 type  2   force =     0.00000000    0.00000000   -0.00004586
     atom    8 type  2   force =     0.00000000    0.00000000   -0.00004682
     atom    9 type  2   force =     0.00000000    0.00000000    0.00000000
     atom   10 type  2   force =     0.00000000    0.00000000    0.00000000
     atom   11 type  2   force =     0.00000000    0.00000000    0.00000000
     atom   12 type  2   force =     0.00000000    0.00000000    0.00000000
     The non-local contrib.  to forces
     atom    1 type  1   force =    -0.00000298   -0.16004430    0.00000549
     atom    2 type  1   force =     0.00000298    0.16004430    0.00000549
     atom    3 type  1   force =    -0.00000298    0.16004430   -0.00000549
     atom    4 type  1   force =     0.00000298   -0.16004430   -0.00000549
     atom    5 type  2   force =     0.00000000    0.00000000    0.00004514
     atom    6 type  2   force =     0.00000000    0.00000000    0.00004348
     atom    7 type  2   force =     0.00000000    0.00000000   -0.00004348
     atom    8 type  2   force =     0.00000000    0.00000000   -0.00004514
     atom    9 type  2   force =     0.00000000    0.00000000    0.00000000
     atom   10 type  2   force =     0.00000000    0.00000000    0.00000000
     atom   11 type  2   force =     0.00000000    0.00000000    0.00000000
     atom   12 type  2   force =     0.00000000    0.00000000    0.00000000
     The ionic contribution  to forces
     atom    1 type  1   force =     0.00000000    1.68559978   -0.00000000
     atom    2 type  1   force =    -0.00000000   -1.68559978   -0.00000000
     atom    3 type  1   force =     0.00000000   -1.68559978    0.00000000
     atom    4 type  1   force =     0.00000000    1.68559978    0.00000000
     atom    5 type  2   force =    -0.00000000    0.00000000   -0.00000000
     atom    6 type  2   force =    -0.00000000    0.00000000    0.00000000
     atom    7 type  2   force =     0.00000000    0.00000000    0.00000000
     atom    8 type  2   force =    -0.00000000   -0.00000000    0.00000000
     atom    9 type  2   force =     0.00000000    0.00000000    0.00000000
     atom   10 type  2   force =     0.00000000    0.00000000    0.00000000
     atom   11 type  2   force =    -0.00000000   -0.00000000   -0.00000000
     atom   12 type  2   force =     0.00000000    0.00000000    0.00000000
     The local contribution  to forces
     atom    1 type  1   force =    -0.00000853   -1.52554149    0.00001308
     atom    2 type  1   force =     0.00000853    1.52554149    0.00001308
     atom    3 type  1   force =    -0.00000853    1.52554149   -0.00001308
     atom    4 type  1   force =     0.00000853   -1.52554149   -0.00001308
     atom    5 type  2   force =     0.00000000    0.00000000    0.00000321
     atom    6 type  2   force =     0.00000000    0.00000000    0.00000397
     atom    7 type  2   force =     0.00000000    0.00000000   -0.00000397
     atom    8 type  2   force =     0.00000000   -0.00000000   -0.00000321
     atom    9 type  2   force =     0.00000000    0.00000000    0.00000000
     atom   10 type  2   force =     0.00000000    0.00000000    0.00000000
     atom   11 type  2   force =     0.00000000    0.00000000    0.00000000
     atom   12 type  2   force =     0.00000000    0.00000000    0.00000000
     The core correction contribution to forces
     atom    1 type  1   force =     0.00000000    0.00000000    0.00000000
     atom    2 type  1   force =     0.00000000    0.00000000    0.00000000
     atom    3 type  1   force =     0.00000000    0.00000000    0.00000000
     atom    4 type  1   force =     0.00000000    0.00000000    0.00000000
     atom    5 type  2   force =     0.00000000    0.00000000    0.00000000
     atom    6 type  2   force =     0.00000000    0.00000000    0.00000000
     atom    7 type  2   force =     0.00000000    0.00000000    0.00000000
     atom    8 type  2   force =     0.00000000    0.00000000    0.00000000
     atom    9 type  2   force =     0.00000000    0.00000000    0.00000000
     atom   10 type  2   force =     0.00000000    0.00000000    0.00000000
     atom   11 type  2   force =     0.00000000    0.00000000    0.00000000
     atom   12 type  2   force =     0.00000000    0.00000000    0.00000000
     The Hubbard contrib.    to forces
     atom    1 type  1   force =     0.00000000    0.00000000    0.00000000
     atom    2 type  1   force =     0.00000000    0.00000000    0.00000000
     atom    3 type  1   force =     0.00000000    0.00000000    0.00000000
     atom    4 type  1   force =     0.00000000    0.00000000    0.00000000
     atom    5 type  2   force =     0.00000000    0.00000000    0.00000000
     atom    6 type  2   force =     0.00000000    0.00000000    0.00000000
     atom    7 type  2   force =     0.00000000    0.00000000    0.00000000
     atom    8 type  2   force =     0.00000000    0.00000000    0.00000000
     atom    9 type  2   force =     0.00000000    0.00000000    0.00000000
     atom   10 type  2   force =     0.00000000    0.00000000    0.00000000
     atom   11 type  2   force =     0.00000000    0.00000000    0.00000000
     atom   12 type  2   force =     0.00000000    0.00000000    0.00000000
     The SCF correction term to forces
     atom    1 type  1   force =     0.00000188   -0.00001125   -0.00000576
     atom    2 type  1   force =    -0.00000188    0.00001125   -0.00000576
     atom    3 type  1   force =     0.00000188    0.00001125    0.00000576
     atom    4 type  1   force =    -0.00000188   -0.00001125    0.00000576
     atom    5 type  2   force =     0.00000000    0.00000000   -0.00000154
     atom    6 type  2   force =    -0.00000000    0.00000000   -0.00000160
     atom    7 type  2   force =     0.00000000    0.00000000    0.00000160
     atom    8 type  2   force =     0.00000000    0.00000000    0.00000154
     atom    9 type  2   force =     0.00000000   -0.00000000    0.00000000
     atom   10 type  2   force =    -0.00000000   -0.00000000   -0.00000000
     atom   11 type  2   force =    -0.00000000   -0.00000000   -0.00000000
     atom   12 type  2   force =     0.00000000   -0.00000000    0.00000000

     Total force =     0.000098     Total SCF correction =     0.000026
     SCF correction compared to forces is large: reduce conv_thr to get better values


     Computing stress (Cartesian axis) and pressure

          total   stress  (Ry/bohr**3)                   (kbar)     P=    0.65
   0.00000326   0.00000000   0.00000000          0.48      0.00      0.00
   0.00000000  -0.00000056   0.00000000          0.00     -0.08      0.00
   0.00000000   0.00000000   0.00001046          0.00      0.00      1.54

     kinetic stress (kbar)  31179.93      0.00      0.00
                                0.00  31180.01      0.00
                                0.00      0.00  31131.08

     local   stress (kbar)   6534.83      0.00     -0.00
                                0.00  13803.49     -0.00
                               -0.00     -0.00  20840.44

     nonloc. stress (kbar) -17615.88      0.00      0.00
                                0.00 -17637.27      0.00
                                0.00      0.00 -17608.48

     hartree stress (kbar)   8802.78      0.00      0.00
                                0.00   6302.71      0.00
                                0.00      0.00   4633.51

     exc-cor stress (kbar)  -5250.13      0.00      0.00
                                0.00  -5250.13      0.00
                                0.00      0.00  -5250.13

     corecor stress (kbar)      0.00      0.00      0.00
                                0.00      0.00      0.00
                                0.00      0.00      0.00

     ewald   stress (kbar) -23651.06     -0.00      0.00
                               -0.00 -28398.90     -0.00
                                0.00     -0.00 -33744.89

     hubbard stress (kbar)      0.00      0.00      0.00
                                0.00      0.00      0.00
                                0.00      0.00      0.00

     london  stress (kbar)      0.00      0.00      0.00
                                0.00      0.00      0.00
                                0.00      0.00      0.00

     DFT-D3  stress (kbar)      0.00      0.00      0.00
                                0.00      0.00      0.00
                                0.00      0.00      0.00

     XDM     stress (kbar)      0.00      0.00      0.00
                                0.00      0.00      0.00
                                0.00      0.00      0.00

     dft-nl  stress (kbar)      0.00      0.00      0.00
                                0.00      0.00      0.00
                                0.00      0.00      0.00

     TS-vdW  stress (kbar)      0.00      0.00      0.00
                                0.00      0.00      0.00
                                0.00      0.00      0.00



     Writing output data file hfo.save/
 
     init_run     :      0.17s CPU      0.28s WALL (       1 calls)
     electrons    :      5.74s CPU      6.12s WALL (       1 calls)
     forces       :      0.02s CPU      0.02s WALL (       1 calls)
     stress       :      0.03s CPU      0.03s WALL (       1 calls)

     Called by init_run:
     wfcinit      :      0.15s CPU      0.22s WALL (       1 calls)
     wfcinit:atom :      0.00s CPU      0.00s WALL (       7 calls)
     wfcinit:wfcr :      0.14s CPU      0.22s WALL (       7 calls)
     potinit      :      0.01s CPU      0.01s WALL (       1 calls)
     hinit0       :      0.01s CPU      0.03s WALL (       1 calls)

     Called by electrons:
     c_bands      :      5.29s CPU      5.63s WALL (      12 calls)
     sum_band     :      0.42s CPU      0.44s WALL (      12 calls)
     v_of_rho     :      0.01s CPU      0.01s WALL (      13 calls)
     v_h          :      0.00s CPU      0.00s WALL (      13 calls)
     v_xc         :      0.00s CPU      0.00s WALL (      13 calls)
     mix_rho      :      0.01s CPU      0.01s WALL (      12 calls)

     Called by c_bands:
     init_us_2    :      0.01s CPU      0.01s WALL (     189 calls)
     cegterg      :      3.98s CPU      4.22s WALL (      84 calls)

     Called by sum_band:

     Called by *egterg:
     h_psi        :      2.10s CPU      2.24s WALL (     344 calls)
     g_psi        :      0.00s CPU      0.00s WALL (     253 calls)
     cdiaghg      :      1.74s CPU      1.89s WALL (     337 calls)
     cegterg:over :      0.13s CPU      0.13s WALL (     253 calls)
     cegterg:upda :      0.08s CPU      0.08s WALL (     253 calls)
     cegterg:last :      0.02s CPU      0.03s WALL (      84 calls)
     cdiaghg:chol :      0.07s CPU      0.09s WALL (     337 calls)
     cdiaghg:inve :      0.06s CPU      0.06s WALL (     337 calls)
     cdiaghg:para :      0.09s CPU      0.10s WALL (     674 calls)

     Called by h_psi:
     h_psi:pot    :      2.10s CPU      2.24s WALL (     344 calls)
     h_psi:calbec :      0.05s CPU      0.06s WALL (     344 calls)
     vloc_psi     :      2.02s CPU      2.15s WALL (     344 calls)
     add_vuspsi   :      0.02s CPU      0.03s WALL (     344 calls)

     General routines
     calbec       :      0.05s CPU      0.06s WALL (     379 calls)
     fft          :      0.01s CPU      0.03s WALL (      44 calls)
     ffts         :      0.00s CPU      0.00s WALL (      12 calls)
     fftw         :      2.24s CPU      2.38s WALL (   27544 calls)
 
     Parallel routines
     fft_scatt_xy :      0.17s CPU      0.18s WALL (   27600 calls)
     fft_scatt_yz :      1.38s CPU      1.46s WALL (   27600 calls)
 
     PWSCF        :     8.00s CPU         8.91s WALL

 
   This run was terminated on:   3:35: 6  13May2024            

=------------------------------------------------------------------------------=
   JOB DONE.
=------------------------------------------------------------------------------=
