  <PP_INFO>

############################################################
#    Opium Parameter File                                  #
############################################################
#-----------------------------------------------------------
#Command line   : /home/yubo/opium hf hf.log all ke rpt upf 
 
#Opium version  : 3.7 
#Compile Host   : onefish 
#Compile OS     : Linux 2.6.37-ARCH Intel(R) Core(TM)2 Duo CPU E7500 @ 2.93GHz 
#Compile Date   : Fri Jul 20 04:33:21 EDT 2012 
#-----------------------------------------------------------
#Execution Host : thidwick 
#Execution Date : Mon Sep 25 15:14:21 2017
 
#-----------------------------------------------------------
############################################################
[Atom]
Hf
14              # norb: number of orbitals
100 2.00 -643.0 # nlm occ eigen(- means auto-generate)
200 2.00 -77.4
210 6.00 -68.4
300 2.00 -10.0
310 6.00  -6.0
320 10.0  -6.4
400 2.00  -6.4
410 6.00  -6.0
420 10.0  -6.0
430 14.0  -1.9
500 2.00  -2.4
510 6.00  -2.0
520 0.50  -1.0
600 0.00  -1.0

[Pseudo]
4  1.76 1.77 1.80 1.75
opt

 [Optinfo]
 7.07  10
 7.07  10
 7.07  10
 7.07  10

[XC]
 lda

[Configs]
4              
#
500 2.00  -2.4 
510 6.00  -2.0
520 0.00 -1.0
600 0.00 -1.0 
#
500 2.00  -2.4 
510 6.00  -2.0
520 1.00 -1.0
600 0.00 -1.0 
#
500 2.00  -2.4 
510 6.00  -2.0
520 1.00 -1.0
600 1.00 -1.0
#
500 2.00  -2.4 
510 6.00  -2.0
520 2.00 -1.0
600 2.00 -1.0 

[Relativity]
srl              # nrl / srl / frl

[KBdesign]
0                 # local orbital
1                 # number of aug. operators
au 0.01 1.50 3.52
############################################################
  </PP_INFO>



<PP_HEADER>
   0         Version Number
   Hf        Element
   NC        Norm - Conserving pseudopotential
    F      Nonlinear Core Correction
SLA  PZ   NOGX NOGC    PZ   Exchange-Correlation functional
 12          Z valence
 0          Total energy
 0.000000   0.000000     Suggested cutoff for wfc and rho
 2           Max angular momentum component
 1186           Number of points in mesh
 3  3     Number of Wavefuncitons, Number of Projectors
 Wavefunctions         nl  l   occ
                       S  0  2.000000
                       P  1  6.000000
                       D  2  0.500000
</PP_HEADER>
<PP_MESH>
  <PP_R>
 2.4037492838456799e-05  2.4352020243910369e-05  2.4670663198745320e-05  2.4993475554379427e-05 
 2.5320511866869110e-05  2.5651827406129585e-05  2.5987478165275506e-05  2.6327520870084068e-05 
 2.6672012988581725e-05  2.7021012740756418e-05  2.7374579108396927e-05  2.7732771845060903e-05 
 2.8095651486173376e-05  2.8463279359257371e-05  2.8835717594298471e-05  2.9213029134244777e-05 
 2.9595277745644609e-05  2.9982528029423078e-05  3.0374845431799838e-05  3.0772296255349635e-05 
 3.1174947670207644e-05  3.1582867725421291e-05  3.1996125360450831e-05  3.2414790416820176e-05 
 3.2838933649920281e-05  3.3268626740967054e-05  3.3703942309115610e-05  3.4144953923733045e-05 
 3.4591736116831879e-05  3.5044364395666146e-05  3.5502915255492252e-05  3.5967466192496909e-05 
 3.6438095716894174e-05  3.6914883366193764e-05  3.7397909718643231e-05  3.7887256406845793e-05 
 3.8383006131556446e-05  3.8885242675658598e-05  3.9394050918323576e-05  3.9909516849355408e-05 
 4.0431727583723284e-05  4.0960771376284273e-05  4.1496737636698417e-05  4.2039716944539416e-05 
 4.2589801064602633e-05  4.3147082962413603e-05  4.3711656819939470e-05  4.4283618051505871e-05 
 4.4863063319922270e-05  4.5450090552818208e-05  4.6044798959193145e-05  4.6647289046183258e-05 
 4.7257662636047241e-05  4.7876022883374524e-05  4.8502474292518662e-05  4.9137122735258819e-05 
 4.9780075468692338e-05  5.0431441153361460e-05  5.1091329871617214e-05  5.1759853146223620e-05 
 5.2437123959205151e-05  5.3123256770941213e-05  5.3818367539510063e-05  5.4522573740286004e-05 
 5.5235994385793049e-05  5.5958750045818316e-05  5.6690962867788560e-05  5.7432756597413479e-05 
 5.8184256599598839e-05  5.8945589879633677e-05  5.9716885104654386e-05  6.0498272625389748e-05 
 6.1289884498190539e-05  6.2091854507347380e-05  6.2904318187700586e-05  6.3727412847545872e-05 
 6.4561277591839808e-05  6.5406053345708835e-05  6.6261882878266095e-05  6.7128910826739414e-05 
 6.8007283720915740e-05  6.8897150007904835e-05  6.9798660077227128e-05  7.0711966286230048e-05 
 7.1637222985836656e-05  7.2574586546631469e-05  7.3524215385287116e-05  7.4486269991337628e-05 
 7.5460912954301214e-05  7.6448308991158341e-05  7.7448624974189352e-05  7.8462029959176208e-05 
 7.9488695213973394e-05  8.0528794247452528e-05  8.1582502838825787e-05  8.2649999067353058e-05 
 8.3731463342437797e-05  8.4827078434116318e-05  8.5937029503946853e-05  8.7061504136301985e-05 
 8.8200692370070960e-05  8.9354786730776661e-05  9.0523982263112916e-05  9.1708476563907528e-05 
 9.2908469815516418e-05  9.4124164819655274e-05  9.5355767031673268e-05  9.6603484595275565e-05 
 9.7867528377700103e-05  9.9148112005354664e-05  1.0044545189992021e-04  1.0175976731492675e-04 
 1.0309128037280760e-04  1.0444021610243867e-04  1.0580680247716898e-04  1.0719127045334824e-04 
 1.0859385400935974e-04  1.1001479018516267e-04  1.1145431912235275e-04  1.1291268410474657e-04 
 1.1439013159949719e-04  1.1588691129874783e-04  1.1740327616182988e-04  1.1893948245801446e-04 
 1.2049578980982193e-04  1.2207246123689886e-04  1.2366976320046913e-04  1.2528796564836625e-04 
 1.2692734206065545e-04  1.2858816949585223e-04  1.3027072863774612e-04  1.3197530384283671e-04 
 1.3370218318839084e-04  1.3545165852112782e-04  1.3722402550654295e-04  1.3901958367887508e-04 
 1.4083863649172907e-04  1.4268149136935970e-04  1.4454845975862750e-04  1.4643985718163397e-04 
 1.4835600328904502e-04  1.5029722191411358e-04  1.5226384112740755e-04  1.5425619329225470e-04 
 1.5627461512091295e-04  1.5831944773147529e-04  1.6039103670551988e-04  1.6248973214651386e-04 
 1.6461588873898191e-04  1.6676986580844855e-04  1.6895202738216543e-04  1.7116274225063187e-04 
 1.7340238402992257e-04  1.7567133122482878e-04  1.7796996729282675e-04  1.8029868070888313e-04 
 1.8265786503110742e-04  1.8504791896726535e-04  1.8746924644216074e-04  1.8992225666589974e-04 
 1.9240736420304865e-04  1.9492498904269604e-04  1.9747555666943192e-04  2.0005949813525591e-04 
 2.0267725013242572e-04  2.0532925506725933e-04  2.0801596113490285e-04  2.1073782239507623e-04 
 2.1349529884881078e-04  2.1628885651619047e-04  2.1911896751510961e-04  2.2198611014106310e-04 
 2.2489076894797891e-04  2.2783343483010886e-04  2.3081460510499056e-04  2.3383478359749606e-04 
 2.3689448072497895e-04  2.3999421358353610e-04  2.4313450603539837e-04  2.4631588879746427e-04 
 2.4953889953099255e-04  2.5280408293246832e-04  2.5611199082565796e-04  2.5946318225486829e-04 
 2.6285822357942725e-04  2.6629768856939912e-04  2.6978215850255341e-04  2.7331222226260242e-04 
 2.7688847643872320e-04  2.8051152542638350e-04  2.8418198152948545e-04  2.8790046506384665e-04 
 2.9166760446203437e-04  2.9548403637957339e-04  2.9935040580254108e-04  3.0326736615657232e-04 
 3.0723557941728986e-04  3.1125571622217919e-04  3.1532845598392881e-04  3.1945448700525188e-04 
 3.2363450659521158e-04  3.2786922118706720e-04  3.3215934645766383e-04  3.3650560744838322e-04 
 3.4090873868767728e-04  3.4536948431520555e-04  3.4988859820759568e-04  3.5446684410585157e-04 
 3.5910499574442676e-04  3.6380383698198757e-04  3.6856416193388643e-04  3.7338677510637055e-04 
 3.7827249153254424e-04  3.8322213691011206e-04  3.8823654774092366e-04  3.9331657147234384e-04 
 3.9846306664047428e-04  4.0367690301524765e-04  4.0895896174742086e-04  4.1431013551749109e-04 
 4.1973132868656197e-04  4.2522345744918207e-04  4.3078744998818400e-04  4.3642424663154996e-04 
 4.4213480001132840e-04  4.4792007522463238e-04  4.5378104999674231e-04  4.5971871484634479e-04 
 4.6573407325293105e-04  4.7182814182638932e-04  4.7800195047881282e-04  4.8425654259855806e-04 
 4.9059297522658014e-04  4.9701231923507405e-04  5.0351565950845605e-04  5.1010409512671092e-04 
 5.1677873955113958e-04  5.2354072081253560e-04  5.3039118170182650e-04  5.3733127996320729e-04 
 5.4436218848980227e-04  5.5148509552188684e-04  5.5870120484770248e-04  5.6601173600690012e-04 
 5.7341792449664569e-04  5.8092102198042158e-04  5.8852229649956011e-04  5.9622303268754711e-04 
 6.0402453198712665e-04  6.1192811287024904e-04  6.1993511106089470e-04  6.2804687976081514e-04 
 6.3626478987822727e-04  6.4459023025950071e-04  6.5302460792387529e-04  6.6156934830125056e-04 
 6.7022589547308770e-04  6.7899571241646225e-04  6.8788028125131085e-04  6.9688110349091267e-04 
 7.0599970029564863e-04  7.1523761273008203e-04  7.2459640202340175e-04  7.3407764983327321e-04 
 7.4368295851314186e-04  7.5341395138303667e-04  7.6327227300391337e-04  7.7325958945558958e-04 
 7.8337758861831666e-04  7.9362798045803451e-04  8.0401249731536098e-04  8.1453289419836127e-04 
 8.2519094907914856e-04  8.3598846319436423e-04  8.4692726134959304e-04  8.5800919222775885e-04 
 8.6923612870155604e-04  8.8060996814997010e-04  8.9213263277893820e-04  9.0380606994620784e-04 
 9.1563225249044423e-04  9.2761317906464536e-04  9.3975087447391705e-04  9.5204739001767270e-04 
 9.6450480383630647e-04  9.7712522126240328e-04  9.8991077517654631e-04  1.0028636263677772e-03 
 1.0159859638987764e-03  1.0292800054758197e-03  1.0427479978235748e-03  1.0563922170648027e-03 
 1.0702149691050305e-03  1.0842185900222521e-03  1.0984054464617322e-03  1.1127779360359763e-03 
 1.1273384877299292e-03  1.1420895623114832e-03  1.1570336527473512e-03  1.1721732846243860e-03 
 1.1875110165764080e-03  1.2030494407166224e-03  1.2187911830756916e-03  1.2347389040455420e-03 
 1.2508952988289745e-03  1.2672630978951603e-03  1.2838450674410992e-03  1.3006440098591110e-03 
 1.3176627642104478e-03  1.3349042067051008e-03  1.3523712511878893e-03  1.3700668496309020e-03 
 1.3879939926323937e-03  1.4061557099222003e-03  1.4245550708737705e-03  1.4431951850228972e-03 
 1.4620792025932369e-03  1.4812103150287049e-03  1.5005917555328363e-03  1.5202267996152078e-03 
 1.5401187656449999e-03  1.5602710154118177e-03  1.5806869546938359e-03  1.6013700338333853e-03 
 1.6223237483200680e-03  1.6435516393815044e-03  1.6650572945818081e-03  1.6868443484278934e-03 
 1.7089164829837177e-03  1.7312774284925509e-03  1.7539309640074070e-03  1.7768809180297063e-03 
 1.8001311691563009e-03  1.8236856467349688e-03  1.8475483315284836e-03  1.8717232563873704e-03 
 1.8962145069314688e-03  1.9210262222404144e-03  1.9461625955531454e-03  1.9716278749765800e-03 
 1.9974263642035511e-03  2.0235624232401400e-03  2.0500404691425312e-03  2.0768649767635020e-03 
 2.1040404795086851e-03  2.1315715701027255e-03  2.1594629013654610e-03  2.1877191869982566e-03 
 2.2163452023806381e-03  2.2453457853773380e-03  2.2747258371559071e-03  2.3044903230150225e-03 
 2.3346442732236376e-03  2.3651927838711068e-03  2.3961410177284377e-03  2.4274942051208141e-03 
 2.4592576448115252e-03  2.4914367048974803e-03  2.5240368237164235e-03  2.5570635107660267e-03 
 2.5905223476350081e-03  2.6244189889464333e-03  2.6587591633133612e-03  2.6935486743069940e-03 
 2.7287934014374928e-03  2.7644993011476248e-03  2.8006724078194264e-03  2.8373188347940205e-03 
 2.8744447754047880e-03  2.9120565040240561e-03  2.9501603771234803e-03  2.9887628343483051e-03 
 3.0278703996056795e-03  3.0674896821672147e-03  3.1076273777859553e-03  3.1482902698279961e-03 
 3.1894852304188725e-03  3.2312192216049735e-03  3.2734992965301403e-03  3.3163326006276656e-03 
 3.3597263728278887e-03  3.4036879467815944e-03  3.4482247520994155e-03  3.4933443156074471e-03 
 3.5390542626193128e-03  3.5853623182248531e-03  3.6322763085956835e-03  3.6798041623078348e-03 
 3.7279539116817063e-03  3.7767336941395427e-03  3.8261517535806799e-03  3.8762164417747874e-03 
 3.9269362197733217e-03  3.9783196593394850e-03  4.0303754443968632e-03  4.0831123724970279e-03 
 4.1365393563063471e-03  4.1906654251122446e-03  4.2454997263491768e-03  4.3010515271445608e-03 
 4.3573302158849561e-03  4.4143453038026992e-03  4.4721064265833528e-03  4.5306233459941458e-03 
 4.5899059515337338e-03  4.6499642621035502e-03  4.7108084277010277e-03  4.7724487311349671e-03 
 4.8348955897633567e-03  4.8981595572539401e-03  4.9622513253677891e-03  5.0271817257662634e-03 
 5.0929617318415709e-03  5.1596024605713017e-03  5.2271151743972216e-03  5.2955112831286543e-03 
 5.3648023458707653e-03  5.4350000729780764e-03  5.5061163280335518e-03  5.5781631298535504e-03 
 5.6511526545190609e-03  5.7250972374334758e-03  5.8000093754073017e-03  5.8759017287701555e-03 
 5.9527871235103861e-03  6.0306785534426982e-03  6.1095891824041416e-03  6.1895323464788293e-03 
 6.2705215562517524e-03  6.3525704990921297e-03  6.4356930414665864e-03  6.5199032312826229e-03 
 6.6052153002627463e-03  6.6916436663496661e-03  6.7792029361429572e-03  6.8679079073676163e-03 
 6.9577735713749122e-03  7.0488151156759375e-03  7.1410479265083737e-03  7.2344875914367758e-03 
 7.3291499019869106e-03  7.4250508563145669e-03  7.5222066619092792e-03  7.6206337383334342e-03 
 7.7203487199972130e-03  7.8213684589698556e-03  7.9237100278276695e-03  8.0273907225393848e-03 
 8.1324280653891738e-03  8.2388398079379799e-03  8.3466439340235624e-03  8.4558586627998169e-03 
 8.5665024518158453e-03  8.6785940001353340e-03  8.7921522514967463e-03  8.9071963975148275e-03 
 9.0237458809240782e-03  9.1418203988645943e-03  9.2614399062109342e-03  9.3826246189445475e-03 
 9.5053950175703148e-03  9.6297718505778118e-03  9.7557761379478466e-03  9.8834291747048938e-03 
 1.0012752534515973e-02  1.0143768073336706e-02  1.0276497933104985e-02  1.0410964545483015e-02 
 1.0547190635648334e-02  1.0685199226134413e-02  1.0825013640721515e-02  1.0966657508378479e-02 
 1.1110154767256077e-02  1.1255529668732573e-02  1.1402806781512335e-02  1.1552010995777955e-02 
 1.1703167527396764e-02  1.1856301922182377e-02  1.2011440060211981e-02  1.2168608160200151e-02 
 1.2327832783929861e-02  1.2489140840741500e-02  1.2652559592080578e-02  1.2818116656105031e-02 
 1.2985840012352723e-02  1.3155758006470061e-02  1.3327899355002469e-02  1.3502293150247559e-02 
 1.3678968865171807e-02  1.3857956358391538e-02  1.4039285879219127e-02  1.4222988072775148e-02 
 1.4409093985167558e-02  1.4597635068738497e-02  1.4788643187379840e-02  1.4982150621918247e-02 
 1.5178190075570728e-02  1.5376794679471542e-02  1.5577997998271444e-02  1.5781834035810210e-02 
 1.5988337240863307e-02  1.6197542512963899e-02  1.6409485208300902e-02  1.6624201145694267e-02 
 1.6841726612648461e-02  1.7062098371485132e-02  1.7285353665556030e-02  1.7511530225537222e-02 
 1.7740666275805679e-02  1.7972800540899236e-02  1.8207972252061205e-02  1.8446221153870509e-02 
 1.8687587510958607e-02  1.8932112114814326e-02  1.9179836290677706e-02  1.9430801904524078e-02 
 1.9685051370139497e-02  1.9942627656288819e-02  2.0203574293977417e-02  2.0467935383808158e-02 
 2.0735755603434432e-02  2.1007080215110788e-02  2.1281955073342386e-02  2.1560426632634484e-02 
 2.1842541955343402e-02  2.2128348719630136e-02  2.2417895227518116e-02  2.2711230413056286e-02 
 2.3008403850589190e-02  2.3309465763135070e-02  2.3614467030873703e-02  2.3923459199745270e-02 
 2.4236494490161738e-02  2.4553625805832247e-02  2.4874906742703946e-02  2.5200391598019869e-02 
 2.5530135379495209e-02  2.5864193814613870e-02  2.6202623360046487e-02  2.6545481211191727e-02 
 2.6892825311842478e-02  2.7244714363978451e-02  2.7601207837686995e-02  2.7962365981213648e-02 
 2.8328249831144292e-02  2.8698921222720348e-02  2.9074442800289250e-02  2.9454878027891391e-02 
 2.9840291199985707e-02  3.0230747452315600e-02  3.0626312772917035e-02  3.1027054013270678e-02 
 3.1433038899599954e-02  3.1844336044316968e-02  3.2261014957618045e-02  3.2683146059231290e-02 
 3.3110800690317604e-02  3.3544051125527476e-02  3.3982970585215662e-02  3.4427633247815496e-02 
 3.4878114262375318e-02  3.5334489761258768e-02  3.5796836873011398e-02  3.6265233735395475e-02 
 3.6739759508595593e-02  3.7220494388596849e-02  3.7707519620738157e-02  3.8200917513442921e-02 
 3.8700771452129329e-02  3.9207165913302720e-02  3.9720186478832312e-02  4.0239919850414752e-02 
 4.0766453864226775e-02  4.1299877505769959e-02  4.1840280924909316e-02  4.2387755451108906e-02 
 4.2942393608866689e-02  4.3504289133351422e-02  4.4073536986244111e-02  4.4650233371786752e-02 
 4.5234475753041146e-02  4.5826362868360185e-02  4.6425994748075156e-02  4.7033472731400912e-02 
 4.7648899483562490e-02  4.8272379013145773e-02  4.8904016689675221e-02  4.9543919261421515e-02 
 5.0192194873442300e-02  5.0848953085859024e-02  5.1514304892372645e-02  5.2188362739022102e-02 
 5.2871240543187807e-02  5.3563053712843978e-02  5.4263919166062873e-02  5.4973955350774206e-02 
 5.5693282264783144e-02  5.6422021476050244e-02  5.7160296143236713e-02  5.7908231036518369e-02 
 5.8665952558672387e-02  5.9433588766439477e-02  6.0211269392165763e-02  6.0999125865727991e-02 
 6.1797291336745337e-02  6.2605900697082120e-02  6.3425090603644818e-02  6.4254999501477450e-02 
 6.5095767647158881e-02  6.5947537132506895e-02  6.6810451908591834e-02  6.7684657810064663e-02 
 6.8570302579803413e-02  6.9467535893882118e-02  7.0376509386866334e-02  7.1297376677439836e-02 
 7.2230293394366485e-02  7.3175417202791859e-02  7.4132907830889078e-02  7.5102927096853220e-02 
 7.6085638936249089e-02  7.7081209429716233e-02  7.8089806831037736e-02  7.9111601595574968e-02 
 8.0146766409075129e-02  8.1195476216855467e-02  8.2257908253369566e-02  8.3334242072160253e-02 
 8.4424659576204680e-02  8.5529345048656349e-02  8.6648485183989363e-02  8.7782269119550241e-02 
 8.8930888467522617e-02  9.0094537347310127e-02  9.1273412418343039e-02  9.2467712913314209e-02 
 9.3677640671849832e-02  9.4903400174620844e-02  9.6145198577900798e-02  9.7403245748575132e-02 
 9.8677754299610135e-02  9.9968939625984354e-02  1.0127701994109112e-01  1.0260221631361705e-01 
 1.0394475270490316e-01  1.0530485600679497e-01  1.0668275607998767e-01  1.0807868579287318e-01 
 1.0949288106089540e-01  1.1092558088642056e-01  1.1237702739912914e-01  1.1384746589693637e-01 
 1.1533714488744819e-01  1.1684631612995952e-01  1.1837523467800236e-01  1.1992415892245029e-01 
 1.2149335063518743e-01  1.2308307501334761e-01  1.2469360072413470e-01  1.2632519995022698e-01 
 1.2797814843577707e-01  1.2965272553301319e-01  1.3134921424945040e-01  1.3306790129571958e-01 
 1.3480907713402224e-01  1.3657303602721918e-01  1.3836007608856177e-01  1.4017049933207371e-01 
 1.4200461172359208e-01  1.4386272323247645e-01  1.4574514788399434e-01  1.4765220381239216e-01 
 1.4958421331466082e-01  1.5154150290500454e-01  1.5352440337002290e-01  1.5553324982461347e-01 
 1.5756838176860857e-01  1.5963014314415058e-01  1.6171888239381912e-01  1.6383495251951882e-01 
 1.6597871114213733e-01  1.6815052056198426e-01  1.7035074782002069e-01  1.7257976475988993e-01 
 1.7483794809076014e-01  1.7712567945098889e-01  1.7944334547262117e-01  1.8179133784673079e-01 
 1.8417005338961751e-01  1.8657989410986961e-01  1.8902126727630447e-01  1.9149458548679793e-01 
 1.9400026673801463e-01  1.9653873449604914e-01  1.9911041776799465e-01  2.0171575117444507e-01 
 2.0435517502294692e-01  2.0702913538241274e-01  2.0973808415850756e-01  2.1248247917002208e-01 
 2.1526278422624523e-01  2.1807946920534885e-01  2.2093301013379840e-01  2.2382388926680249e-01 
 2.2675259516981519e-01  2.2971962280110469e-01  2.3272547359540255e-01  2.3577065554864710e-01 
 2.3885568330383641e-01  2.4198107823800369e-01  2.4514736855033195e-01  2.4835508935141926e-01 
 2.5160478275371612e-01  2.5489699796314208e-01  2.5823229137190329e-01  2.6161122665252423e-01 
 2.6503437485310943e-01  2.6850231449385231e-01  2.7201563166480613e-01  2.7557492012493479e-01 
 2.7918078140245950e-01  2.8283382489651854e-01  2.8653466798015692e-01  2.9028393610466424e-01 
 2.9408226290527706e-01  2.9793029030826507e-01  3.0182866863941815e-01  3.0577805673395270e-01 
 3.0977912204785718e-01  3.1383254077069150e-01  3.1793899793986785e-01  3.2209918755642164e-01 
 3.2631381270229970e-01  3.3058358565918283e-01  3.3490922802886330e-01  3.3929147085519706e-01 
 3.4373105474765181e-01  3.4822873000647214e-01  3.5278525674948152e-01  3.5740140504054474e-01 
 3.6207795501970963e-01  3.6681569703505340e-01  3.7161543177625300e-01  3.7647797040990344e-01 
 3.8140413471660717e-01  3.8639475722985672e-01  3.9145068137673567e-01  3.9657276162045713e-01 
 4.0176186360477401e-01  4.0701886430027218e-01  4.1234465215258137e-01  4.1774012723252452e-01 
 4.2320620138823184e-01  4.2874379839924548e-01  4.3435385413264033e-01  4.4003731670118779e-01 
 4.4579514662358910e-01  4.5162831698680544e-01  4.5753781361051149e-01  4.6352463521370219e-01 
 4.6958979358347730e-01  4.7573431374603725e-01  4.8195923413991387e-01  4.8826560679146991e-01 
 4.9465449749269375e-01  5.0112698598131866e-01  5.0768416612330514e-01  5.1432714609770391e-01 
 5.2105704858394153e-01  5.2787501095155587e-01  5.3478218545241474e-01  5.4177973941544844e-01 
 5.4886885544393149e-01  5.5605073161534557e-01  5.6332658168385707e-01  5.7069763528544504e-01 
 5.7816513814571169e-01  5.8573035229041404e-01  5.9339455625874837e-01  6.0115904531942688e-01 
 6.0902513168958106e-01  6.1699414475652936e-01  6.2506743130244857e-01  6.3324635573197763e-01 
 6.4153230030281305e-01  6.4992666535930854e-01  6.5843086956913810e-01  6.6704635016305402e-01 
 6.7577456317778228e-01  6.8461698370209645e-01  6.9357510612611106e-01  7.0265044439383662e-01 
 7.1184453225904087e-01  7.2115892354445577e-01  7.3059519240437765e-01  7.4015493359070306e-01 
 7.4983976272244568e-01  7.5965131655877960e-01  7.6959125327565558e-01  7.7966125274603681e-01 
 7.8986301682380267e-01  8.0019826963136065e-01  8.1066875785103576e-01  8.2127625102025770e-01 
 8.3202254183061908e-01  8.4290944643084387e-01  8.5393880473372152e-01  8.6511248072705615e-01 
 8.7643236278868508e-01  8.8790036400561911e-01  8.9951842249735892e-01  9.1128850174344145e-01 
 9.2321259091527352e-01  9.3529270521230545e-01  9.4753088620260550e-01  9.5992920216788891e-01 
 9.7248974845306313e-01  9.8521464782034540e-01  9.9810605080801751e-01  1.0111661360938633e+00 
 1.0243971108633820e+00  1.0378012111828010e+00  1.0513807023769770e+00  1.0651378794122428e+00 
 1.0790750672842604e+00  1.0931946214109518e+00  1.1074989280305707e+00  1.1219904046049816e+00 
 1.1366715002282164e+00  1.1515446960403777e+00  1.1666125056469576e+00  1.1818774755436428e+00 
 1.1973421855466770e+00  1.2130092492288593e+00  1.2288813143612405e+00  1.2449610633606050e+00 
 1.2612512137428076e+00  1.2777545185820305e+00  1.2944737669760729e+00  1.3114117845177073e+00 
 1.3285714337722121e+00  1.3459556147611529e+00  1.3635672654524926e+00  1.3814093622571162e+00 
 1.3994849205318489e+00  1.4177969950890612e+00  1.4363486807129373e+00  1.4551431126825027e+00 
 1.4741834673014931e+00  1.4934729624351566e+00  1.5130148580540816e+00  1.5328124567851396e+00 
 1.5528691044696363e+00  1.5731881907287670e+00  1.5937731495364735e+00  1.6146274597997836e+00 
 1.6357546459467691e+00  1.6571582785221741e+00  1.6788419747908463e+00  1.7008093993490643e+00 
 1.7230642647438632e+00  1.7456103321004637e+00  1.7684514117579104e+00  1.7915913639130296e+00 
 1.8150340992728111e+00  1.8387835797153267e+00  1.8628438189592964e+00  1.8872188832424190e+00 
 1.9119128920085728e+00  1.9369300186040139e+00  1.9622744909826801e+00  1.9879505924207252e+00 
 2.0139626622404077e+00  2.0403150965434316e+00  2.0670123489539183e+00  2.0940589313710678e+00 
 2.1214594147316816e+00  2.1492184297826640e+00  2.1773406678636271e+00  2.2058308816997410e+00 
 2.2346938862049526e+00  2.2639345592957207e+00  2.2935578427153929e+00  2.3235687428693734e+00 
 2.3539723316712173e+00  2.3847737473997959e+00  2.4159781955676767e+00  2.4475909498008708e+00 
 2.4796173527300844e+00  2.5120628168936383e+00  2.5449328256522046e+00  2.5782329341154879e+00 
 2.6119687700810799e+00  2.6461460349855543e+00  2.6807705048680255e+00  2.7158480313463116e+00 
 2.7513845426058769e+00  2.7873860444017038e+00  2.8238586210732830e+00  2.8608084365728796e+00 
 2.8982417355072587e+00  2.9361648441930344e+00  2.9745841717258346e+00  3.0135062110634543e+00 
 3.0529375401231804e+00  3.0928848228934740e+00  3.1333548105602014e+00  3.1743543426476015e+00 
 3.2158903481741850e+00  3.2579698468237344e+00  3.3005999501316805e+00  3.3437878626869457e+00 
 3.3875408833495437e+00  3.4318664064841031e+00  3.4767719232095322e+00  3.5222650226650369e+00 
 3.5683533932927043e+00  3.6150448241368633e+00  3.6623472061604585e+00  3.7102685335786356e+00 
 3.7588169052097857e+00  3.8080005258442631e+00  3.8578277076310190e+00  3.9083068714823668e+00 
 3.9594465484971439e+00  4.0112553814024823e+00  4.0637421260144615e+00  4.1169156527178297e+00 
 4.1707849479651635e+00  4.2253591157955759e+00  4.2806473793733213e+00  4.3366590825465359e+00 
 4.3934036914263679e+00  4.4508907959867772e+00  4.5091301116852600e+00  4.5681314811047820e+00 
 4.6279048756172063e+00  4.6884603970684715e+00  4.7498082794858298e+00  4.8119588908074249e+00 
 4.8749227346344934e+00  4.9387104520065037e+00  5.0033328231995116e+00  5.0688007695480559e+00 
 5.1351253552908993e+00  5.2023177894408734e+00  5.2703894276792820e+00  5.3393517742750056e+00 
 5.4092164840287555e+00  5.4799953642427646e+00  5.5517003767162496e+00  5.6243436397669839e+00 
 5.6979374302793202e+00  5.7724941857790162e+00  5.8480265065352039e+00  5.9245471576898643e+00 
 6.0020690714151703e+00  6.0806053490990495e+00  6.1601692635593572e+00  6.2407742612870036e+00 
 6.3224339647184538e+00  6.4051621745379466e+00  6.4889728720098532e+00  6.5738802213415015e+00 
 6.6598985720770276e+00  6.7470424615224367e+00  6.8353266172024583e+00  6.9247659593495241e+00 
 7.0153756034253334e+00  7.1071708626753942e+00  7.2001672507170014e+00  7.2943804841610751e+00 
 7.3898264852683031e+00  7.4865213846400422e+00  7.5844815239444312e+00  7.6837234586781671e+00 
 7.7842639609644237e+00  7.8861200223873844e+00  7.9893088568638575e+00  8.0938479035524686e+00 
 8.1997548298009360e+00  8.3070475341318346e+00  8.4157441492675797e+00  8.5258630451948338e+00 
 8.6374228322691060e+00  8.7504423643599338e+00  8.8649407420372395e+00  8.9809373157993626e+00 
 9.0984516893433565e+00  9.2175037228780443e+00  9.3381135364804511e+00  9.4603015134961357e+00 
 9.5840883039840339e+00  9.7094948282063616e+00  9.8365422801641937e+00  9.9652521311792963e+00 
 1.0095646133522830e+01  1.0227746324091548e+01  1.0361575028132078e+01  1.0497154863013897e+01 
 1.0634508742051807e+01  1.0773659878378286e+01  1.0914631788866561e+01  1.1057448298105037e+01 
 1.1202133542423688e+01  1.1348711973973169e+01  1.1497208364857284e+01  1.1647647811319530e+01 
 1.1800055737984415e+01  1.1954457902154296e+01  1.2110880398162406e+01  1.2269349661782872e+01 
 1.2429892474698420e+01  1.2592535969026535e+01  1.2757307631904872e+01  1.2924235310136629e+01 
 1.3093347214896751e+01  1.3264671926499599e+01  1.3438238399229229e+01  1.3614075966232637e+01 
 1.3792214344477156e+01  1.3972683639772695e+01  1.4155514351859695e+01  1.4340737379563652e+01 
 1.4528384026017099e+01  1.4718486003949900e+01  1.4911075441048792e+01  1.5106184885387020e+01 
 1.5303847310925063e+01  1.5504096123083286e+01  1.5706965164387562e+01  1.5912488720188716e+01 
 1.6120701524456841e+01  1.6331638765651459e+01  1.6545336092668325e+01  1.6761829620864354e+01 
 1.6981155938161081e+01  1.7203352111228153e+01  1.7428455691747661e+01  1.7656504722760491e+01 
 1.7887537745095656e+01  1.8121593803883812e+01  1.8358712455155967e+01  1.8598933772528554e+01 
 1.8842298353975966e+01  1.9088847328691692e+01  1.9338622364039267e+01  1.9591665672594157e+01 
 1.9848020019277776e+01  2.0107728728584860e+01  2.0370835691905413e+01  2.0637385374942497e+01 
 2.0907422825226885e+01  2.1180993679730424e+01  2.1458144172578649e+01  2.1738921142864498e+01 
 2.2023372042564230e+01  2.2311544944556911e+01  2.2603488550748857e+01  2.2899252200304367e+01 
 2.3198885877984168e+01  2.3502440222592938e+01  2.3809966535537406e+01  2.4121516789496404e+01 
 2.4437143637204375e+01  2.4756900420349794e+01  2.5080841178590074e+01  2.5409020658684359e+01 
 2.5741494323745894e+01  2.6078318362615434e+01  2.6419549699357127e+01  2.6765246002879099e+01 
 2.7115465696679433e+01  2.7470267968719938e+01  2.7829712781429048e+01  2.8193860881835629e+01 
 2.8562773811835356e+01  2.8936513918591451e+01  2.9315144365071490e+01  2.9698729140722101e+01 
 3.0087333072283350e+01  3.0481021834744574e+01  3.0879861962443652e+01  3.1283920860311436e+01 
 3.1693266815263378e+01  3.2107969007740138e+01  3.2528097523399275e+01  3.2953723364959941e+01 
 3.3384918464202286e+01  3.3821755694124413e+01  3.4264308881257904e+01  3.4712652818144683e+01 
 3.5166863275977207e+01  3.5627017017403915e+01  3.6093191809502308e+01  3.6565466436921788e+01 
 3.7043920715198460e+01  3.7528635504244114e+01  3.8019692722011769e+01  3.8517175358339991e+01 
 3.9021167488978371e+01  3.9531754289796552e+01  4.0049022051179101e+01  4.0573058192608848e+01 
 4.1103951277440949e+01  4.1641791027870390e+01  4.2186668340094961e+01  4.2738675299677361e+01 
 4.3297905197107589e+01  4.3864452543569328e+01  4.4438413086912568e+01  4.5019883827835230e+01 
 4.5608963036276464e+01  4.6205750268024573e+01  4.6810346381542132e+01  4.7422853555011336e+01 
 4.8043375303602303e+01  4.8672016496967473e+01  4.9308883376964729e+01  4.9954083575612600e+01 
 5.0607726133280309e+01  5.1269921517115826e+01  5.1940781639715105e+01  5.2620419878035676e+01 
 5.3308951092557237e+01  5.4006491646693895e+01  5.4713159426459519e+01  5.5429073860390830e+01 
 5.6154355939731104e+01  5.6889128238877987e+01  5.7633514936098877e+01  5.8387641834517304e+01 
 5.9151636383373997e+01  5.9925627699566107e+01  6.0709746589468232e+01  6.1504125571039040e+01 
 6.2308898896217130e+01  6.3124202573609878e+01  6.3950174391479287e+01  6.4786953941028457e+01 